+ 0.5 0 1 cbr 512 ------- 2 0.0 2.0 0 0
- 0.5 0 1 cbr 512 ------- 2 0.0 2.0 0 0
+ 0.505 0 1 cbr 512 ------- 2 0.0 2.0 1 1
- 0.50512 0 1 cbr 512 ------- 2 0.0 2.0 1 1
+ 0.51 0 1 cbr 512 ------- 2 0.0 2.0 2 2
- 0.51024 0 1 cbr 512 ------- 2 0.0 2.0 2 2
+ 0.515 0 1 cbr 512 ------- 2 0.0 2.0 3 3
- 0.51536 0 1 cbr 512 ------- 2 0.0 2.0 3 3
+ 0.52 0 1 cbr 512 ------- 2 0.0 2.0 4 4
- 0.52048 0 1 cbr 512 ------- 2 0.0 2.0 4 4
+ 0.525 0 1 cbr 512 ------- 2 0.0 2.0 5 5
r 0.52512 0 1 cbr 512 ------- 2 0.0 2.0 0 0
+ 0.52512 1 2 cbr 512 ------- 2 0.0 2.0 0 0
- 0.52512 1 2 cbr 512 ------- 2 0.0 2.0 0 0
- 0.5256 0 1 cbr 512 ------- 2 0.0 2.0 5 5
+ 0.53 0 1 cbr 512 ------- 2 0.0 2.0 6 6
r 0.53024 0 1 cbr 512 ------- 2 0.0 2.0 1 1
+ 0.53024 1 2 cbr 512 ------- 2 0.0 2.0 1 1
- 0.53024 1 2 cbr 512 ------- 2 0.0 2.0 1 1
- 0.53072 0 1 cbr 512 ------- 2 0.0 2.0 6 6
+ 0.535 0 1 cbr 512 ------- 2 0.0 2.0 7 7
r 0.53536 0 1 cbr 512 ------- 2 0.0 2.0 2 2
+ 0.53536 1 2 cbr 512 ------- 2 0.0 2.0 2 2
- 0.53536 1 2 cbr 512 ------- 2 0.0 2.0 2 2
- 0.53584 0 1 cbr 512 ------- 2 0.0 2.0 7 7
+ 0.54 0 1 cbr 512 ------- 2 0.0 2.0 8 8
r 0.54048 0 1 cbr 512 ------- 2 0.0 2.0 3 3
+ 0.54048 1 2 cbr 512 ------- 2 0.0 2.0 3 3
- 0.54048 1 2 cbr 512 ------- 2 0.0 2.0 3 3
- 0.54096 0 1 cbr 512 ------- 2 0.0 2.0 8 8
+ 0.545 0 1 cbr 512 ------- 2 0.0 2.0 9 9
r 0.5456 0 1 cbr 512 ------- 2 0.0 2.0 4 4
+ 0.5456 1 2 cbr 512 ------- 2 0.0 2.0 4 4
- 0.5456 1 2 cbr 512 ------- 2 0.0 2.0 4 4
- 0.54608 0 1 cbr 512 ------- 2 0.0 2.0 9 9
+ 0.55 0 1 cbr 512 ------- 2 0.0 2.0 10 10
r 0.55024 1 2 cbr 512 ------- 2 0.0 2.0 0 0
r 0.55072 0 1 cbr 512 ------- 2 0.0 2.0 5 5
+ 0.55072 1 2 cbr 512 ------- 2 0.0 2.0 5 5
- 0.55072 1 2 cbr 512 ------- 2 0.0 2.0 5 5
- 0.5512 0 1 cbr 512 ------- 2 0.0 2.0 10 10
+ 0.555 0 1 cbr 512 ------- 2 0.0 2.0 11 11
r 0.55536 1 2 cbr 512 ------- 2 0.0 2.0 1 1
r 0.55584 0 1 cbr 512 ------- 2 0.0 2.0 6 6
+ 0.55584 1 2 cbr 512 ------- 2 0.0 2.0 6 6
- 0.55584 1 2 cbr 512 ------- 2 0.0 2.0 6 6
- 0.55632 0 1 cbr 512 ------- 2 0.0 2.0 11 11
+ 0.56 0 1 cbr 512 ------- 2 0.0 2.0 12 12
r 0.56048 1 2 cbr 512 ------- 2 0.0 2.0 2 2
r 0.56096 0 1 cbr 512 ------- 2 0.0 2.0 7 7
+ 0.56096 1 2 cbr 512 ------- 2 0.0 2.0 7 7
- 0.56096 1 2 cbr 512 ------- 2 0.0 2.0 7 7
- 0.56144 0 1 cbr 512 ------- 2 0.0 2.0 12 12
+ 0.565 0 1 cbr 512 ------- 2 0.0 2.0 13 13
r 0.5656 1 2 cbr 512 ------- 2 0.0 2.0 3 3
r 0.56608 0 1 cbr 512 ------- 2 0.0 2.0 8 8
+ 0.56608 1 2 cbr 512 ------- 2 0.0 2.0 8 8
- 0.56608 1 2 cbr 512 ------- 2 0.0 2.0 8 8
- 0.56656 0 1 cbr 512 ------- 2 0.0 2.0 13 13
+ 0.57 0 1 cbr 512 ------- 2 0.0 2.0 14 14
r 0.57072 1 2 cbr 512 ------- 2 0.0 2.0 4 4
r 0.5712 0 1 cbr 512 ------- 2 0.0 2.0 9 9
+ 0.5712 1 2 cbr 512 ------- 2 0.0 2.0 9 9
- 0.5712 1 2 cbr 512 ------- 2 0.0 2.0 9 9
- 0.57168 0 1 cbr 512 ------- 2 0.0 2.0 14 14
+ 0.575 0 1 cbr 512 ------- 2 0.0 2.0 15 15
r 0.57584 1 2 cbr 512 ------- 2 0.0 2.0 5 5
r 0.57632 0 1 cbr 512 ------- 2 0.0 2.0 10 10
+ 0.57632 1 2 cbr 512 ------- 2 0.0 2.0 10 10
- 0.57632 1 2 cbr 512 ------- 2 0.0 2.0 10 10
- 0.5768 0 1 cbr 512 ------- 2 0.0 2.0 15 15
+ 0.58 0 1 cbr 512 ------- 2 0.0 2.0 16 16
r 0.58096 1 2 cbr 512 ------- 2 0.0 2.0 6 6
r 0.58144 0 1 cbr 512 ------- 2 0.0 2.0 11 11
+ 0.58144 1 2 cbr 512 ------- 2 0.0 2.0 11 11
- 0.58144 1 2 cbr 512 ------- 2 0.0 2.0 11 11
- 0.58192 0 1 cbr 512 ------- 2 0.0 2.0 16 16
+ 0.585 0 1 cbr 512 ------- 2 0.0 2.0 17 17
r 0.58608 1 2 cbr 512 ------- 2 0.0 2.0 7 7
r 0.58656 0 1 cbr 512 ------- 2 0.0 2.0 12 12
+ 0.58656 1 2 cbr 512 ------- 2 0.0 2.0 12 12
- 0.58656 1 2 cbr 512 ------- 2 0.0 2.0 12 12
- 0.58704 0 1 cbr 512 ------- 2 0.0 2.0 17 17
+ 0.59 0 1 cbr 512 ------- 2 0.0 2.0 18 18
r 0.5912 1 2 cbr 512 ------- 2 0.0 2.0 8 8
r 0.59168 0 1 cbr 512 ------- 2 0.0 2.0 13 13
+ 0.59168 1 2 cbr 512 ------- 2 0.0 2.0 13 13
- 0.59168 1 2 cbr 512 ------- 2 0.0 2.0 13 13
- 0.59216 0 1 cbr 512 ------- 2 0.0 2.0 18 18
+ 0.595 0 1 cbr 512 ------- 2 0.0 2.0 19 19
r 0.59632 1 2 cbr 512 ------- 2 0.0 2.0 9 9
r 0.5968 0 1 cbr 512 ------- 2 0.0 2.0 14 14
+ 0.5968 1 2 cbr 512 ------- 2 0.0 2.0 14 14
- 0.5968 1 2 cbr 512 ------- 2 0.0 2.0 14 14
- 0.59728 0 1 cbr 512 ------- 2 0.0 2.0 19 19
+ 0.6 0 1 cbr 512 ------- 2 0.0 2.0 20 20
r 0.60144 1 2 cbr 512 ------- 2 0.0 2.0 10 10
r 0.60192 0 1 cbr 512 ------- 2 0.0 2.0 15 15
+ 0.60192 1 2 cbr 512 ------- 2 0.0 2.0 15 15
- 0.60192 1 2 cbr 512 ------- 2 0.0 2.0 15 15
- 0.6024 0 1 cbr 512 ------- 2 0.0 2.0 20 20
+ 0.605 0 1 cbr 512 ------- 2 0.0 2.0 21 21
r 0.60656 1 2 cbr 512 ------- 2 0.0 2.0 11 11
r 0.60704 0 1 cbr 512 ------- 2 0.0 2.0 16 16
+ 0.60704 1 2 cbr 512 ------- 2 0.0 2.0 16 16
- 0.60704 1 2 cbr 512 ------- 2 0.0 2.0 16 16
- 0.60752 0 1 cbr 512 ------- 2 0.0 2.0 21 21
+ 0.61 0 1 cbr 512 ------- 2 0.0 2.0 22 22
r 0.61168 1 2 cbr 512 ------- 2 0.0 2.0 12 12
r 0.61216 0 1 cbr 512 ------- 2 0.0 2.0 17 17
+ 0.61216 1 2 cbr 512 ------- 2 0.0 2.0 17 17
- 0.61216 1 2 cbr 512 ------- 2 0.0 2.0 17 17
- 0.61264 0 1 cbr 512 ------- 2 0.0 2.0 22 22
+ 0.615 0 1 cbr 512 ------- 2 0.0 2.0 23 23
r 0.6168 1 2 cbr 512 ------- 2 0.0 2.0 13 13
r 0.61728 0 1 cbr 512 ------- 2 0.0 2.0 18 18
+ 0.61728 1 2 cbr 512 ------- 2 0.0 2.0 18 18
- 0.61728 1 2 cbr 512 ------- 2 0.0 2.0 18 18
- 0.61776 0 1 cbr 512 ------- 2 0.0 2.0 23 23
+ 0.62 0 1 cbr 512 ------- 2 0.0 2.0 24 24
r 0.62192 1 2 cbr 512 ------- 2 0.0 2.0 14 14
r 0.6224 0 1 cbr 512 ------- 2 0.0 2.0 19 19
+ 0.6224 1 2 cbr 512 ------- 2 0.0 2.0 19 19
- 0.6224 1 2 cbr 512 ------- 2 0.0 2.0 19 19
- 0.62288 0 1 cbr 512 ------- 2 0.0 2.0 24 24
+ 0.625 0 1 cbr 512 ------- 2 0.0 2.0 25 25
r 0.62704 1 2 cbr 512 ------- 2 0.0 2.0 15 15
r 0.62752 0 1 cbr 512 ------- 2 0.0 2.0 20 20
+ 0.62752 1 2 cbr 512 ------- 2 0.0 2.0 20 20
- 0.62752 1 2 cbr 512 ------- 2 0.0 2.0 20 20
- 0.628 0 1 cbr 512 ------- 2 0.0 2.0 25 25
+ 0.63 0 1 cbr 512 ------- 2 0.0 2.0 26 26
r 0.63216 1 2 cbr 512 ------- 2 0.0 2.0 16 16
r 0.63264 0 1 cbr 512 ------- 2 0.0 2.0 21 21
+ 0.63264 1 2 cbr 512 ------- 2 0.0 2.0 21 21
- 0.63264 1 2 cbr 512 ------- 2 0.0 2.0 21 21
- 0.63312 0 1 cbr 512 ------- 2 0.0 2.0 26 26
+ 0.635 0 1 cbr 512 ------- 2 0.0 2.0 27 27
r 0.63728 1 2 cbr 512 ------- 2 0.0 2.0 17 17
r 0.63776 0 1 cbr 512 ------- 2 0.0 2.0 22 22
+ 0.63776 1 2 cbr 512 ------- 2 0.0 2.0 22 22
- 0.63776 1 2 cbr 512 ------- 2 0.0 2.0 22 22
- 0.63824 0 1 cbr 512 ------- 2 0.0 2.0 27 27
+ 0.64 0 1 cbr 512 ------- 2 0.0 2.0 28 28
r 0.6424 1 2 cbr 512 ------- 2 0.0 2.0 18 18
r 0.64288 0 1 cbr 512 ------- 2 0.0 2.0 23 23
+ 0.64288 1 2 cbr 512 ------- 2 0.0 2.0 23 23
- 0.64288 1 2 cbr 512 ------- 2 0.0 2.0 23 23
- 0.64336 0 1 cbr 512 ------- 2 0.0 2.0 28 28
+ 0.645 0 1 cbr 512 ------- 2 0.0 2.0 29 29
r 0.64752 1 2 cbr 512 ------- 2 0.0 2.0 19 19
r 0.648 0 1 cbr 512 ------- 2 0.0 2.0 24 24
+ 0.648 1 2 cbr 512 ------- 2 0.0 2.0 24 24
- 0.648 1 2 cbr 512 ------- 2 0.0 2.0 24 24
- 0.64848 0 1 cbr 512 ------- 2 0.0 2.0 29 29
+ 0.65 0 1 cbr 512 ------- 2 0.0 2.0 30 30
r 0.65264 1 2 cbr 512 ------- 2 0.0 2.0 20 20
r 0.65312 0 1 cbr 512 ------- 2 0.0 2.0 25 25
+ 0.65312 1 2 cbr 512 ------- 2 0.0 2.0 25 25
- 0.65312 1 2 cbr 512 ------- 2 0.0 2.0 25 25
- 0.6536 0 1 cbr 512 ------- 2 0.0 2.0 30 30
+ 0.655 0 1 cbr 512 ------- 2 0.0 2.0 31 31
r 0.65776 1 2 cbr 512 ------- 2 0.0 2.0 21 21
r 0.65824 0 1 cbr 512 ------- 2 0.0 2.0 26 26
+ 0.65824 1 2 cbr 512 ------- 2 0.0 2.0 26 26
- 0.65824 1 2 cbr 512 ------- 2 0.0 2.0 26 26
- 0.65872 0 1 cbr 512 ------- 2 0.0 2.0 31 31
+ 0.66 0 1 cbr 512 ------- 2 0.0 2.0 32 32
r 0.66288 1 2 cbr 512 ------- 2 0.0 2.0 22 22
r 0.66336 0 1 cbr 512 ------- 2 0.0 2.0 27 27
+ 0.66336 1 2 cbr 512 ------- 2 0.0 2.0 27 27
- 0.66336 1 2 cbr 512 ------- 2 0.0 2.0 27 27
- 0.66384 0 1 cbr 512 ------- 2 0.0 2.0 32 32
+ 0.665 0 1 cbr 512 ------- 2 0.0 2.0 33 33
r 0.668 1 2 cbr 512 ------- 2 0.0 2.0 23 23
r 0.66848 0 1 cbr 512 ------- 2 0.0 2.0 28 28
+ 0.66848 1 2 cbr 512 ------- 2 0.0 2.0 28 28
- 0.66848 1 2 cbr 512 ------- 2 0.0 2.0 28 28
- 0.66896 0 1 cbr 512 ------- 2 0.0 2.0 33 33
+ 0.67 0 1 cbr 512 ------- 2 0.0 2.0 34 34
r 0.67312 1 2 cbr 512 ------- 2 0.0 2.0 24 24
r 0.6736 0 1 cbr 512 ------- 2 0.0 2.0 29 29
+ 0.6736 1 2 cbr 512 ------- 2 0.0 2.0 29 29
- 0.6736 1 2 cbr 512 ------- 2 0.0 2.0 29 29
- 0.67408 0 1 cbr 512 ------- 2 0.0 2.0 34 34
+ 0.675 0 1 cbr 512 ------- 2 0.0 2.0 35 35
r 0.67824 1 2 cbr 512 ------- 2 0.0 2.0 25 25
r 0.67872 0 1 cbr 512 ------- 2 0.0 2.0 30 30
+ 0.67872 1 2 cbr 512 ------- 2 0.0 2.0 30 30
- 0.67872 1 2 cbr 512 ------- 2 0.0 2.0 30 30
- 0.6792 0 1 cbr 512 ------- 2 0.0 2.0 35 35
+ 0.68 0 1 cbr 512 ------- 2 0.0 2.0 36 36
r 0.68336 1 2 cbr 512 ------- 2 0.0 2.0 26 26
r 0.68384 0 1 cbr 512 ------- 2 0.0 2.0 31 31
+ 0.68384 1 2 cbr 512 ------- 2 0.0 2.0 31 31
- 0.68384 1 2 cbr 512 ------- 2 0.0 2.0 31 31
- 0.68432 0 1 cbr 512 ------- 2 0.0 2.0 36 36
+ 0.685 0 1 cbr 512 ------- 2 0.0 2.0 37 37
r 0.68848 1 2 cbr 512 ------- 2 0.0 2.0 27 27
r 0.68896 0 1 cbr 512 ------- 2 0.0 2.0 32 32
+ 0.68896 1 2 cbr 512 ------- 2 0.0 2.0 32 32
- 0.68896 1 2 cbr 512 ------- 2 0.0 2.0 32 32
- 0.68944 0 1 cbr 512 ------- 2 0.0 2.0 37 37
+ 0.69 0 1 cbr 512 ------- 2 0.0 2.0 38 38
r 0.6936 1 2 cbr 512 ------- 2 0.0 2.0 28 28
r 0.69408 0 1 cbr 512 ------- 2 0.0 2.0 33 33
+ 0.69408 1 2 cbr 512 ------- 2 0.0 2.0 33 33
- 0.69408 1 2 cbr 512 ------- 2 0.0 2.0 33 33
- 0.69456 0 1 cbr 512 ------- 2 0.0 2.0 38 38
+ 0.695 0 1 cbr 512 ------- 2 0.0 2.0 39 39
r 0.69872 1 2 cbr 512 ------- 2 0.0 2.0 29 29
r 0.6992 0 1 cbr 512 ------- 2 0.0 2.0 34 34
+ 0.6992 1 2 cbr 512 ------- 2 0.0 2.0 34 34
- 0.6992 1 2 cbr 512 ------- 2 0.0 2.0 34 34
- 0.69968 0 1 cbr 512 ------- 2 0.0 2.0 39 39
+ 0.7 0 1 cbr 512 ------- 2 0.0 2.0 40 40
r 0.70384 1 2 cbr 512 ------- 2 0.0 2.0 30 30
r 0.70432 0 1 cbr 512 ------- 2 0.0 2.0 35 35
+ 0.70432 1 2 cbr 512 ------- 2 0.0 2.0 35 35
- 0.70432 1 2 cbr 512 ------- 2 0.0 2.0 35 35
- 0.7048 0 1 cbr 512 ------- 2 0.0 2.0 40 40
+ 0.705 0 1 cbr 512 ------- 2 0.0 2.0 41 41
r 0.70896 1 2 cbr 512 ------- 2 0.0 2.0 31 31
r 0.70944 0 1 cbr 512 ------- 2 0.0 2.0 36 36
+ 0.70944 1 2 cbr 512 ------- 2 0.0 2.0 36 36
- 0.70944 1 2 cbr 512 ------- 2 0.0 2.0 36 36
- 0.70992 0 1 cbr 512 ------- 2 0.0 2.0 41 41
+ 0.71 0 1 cbr 512 ------- 2 0.0 2.0 42 42
r 0.71408 1 2 cbr 512 ------- 2 0.0 2.0 32 32
r 0.71456 0 1 cbr 512 ------- 2 0.0 2.0 37 37
+ 0.71456 1 2 cbr 512 ------- 2 0.0 2.0 37 37
- 0.71456 1 2 cbr 512 ------- 2 0.0 2.0 37 37
+ 0.715 0 1 cbr 512 ------- 2 0.0 2.0 43 43
- 0.71504 0 1 cbr 512 ------- 2 0.0 2.0 42 42
r 0.7192 1 2 cbr 512 ------- 2 0.0 2.0 33 33
r 0.71968 0 1 cbr 512 ------- 2 0.0 2.0 38 38
+ 0.71968 1 2 cbr 512 ------- 2 0.0 2.0 38 38
- 0.71968 1 2 cbr 512 ------- 2 0.0 2.0 38 38
+ 0.72 0 1 cbr 512 ------- 2 0.0 2.0 44 44
- 0.72016 0 1 cbr 512 ------- 2 0.0 2.0 43 43
r 0.72432 1 2 cbr 512 ------- 2 0.0 2.0 34 34
r 0.7248 0 1 cbr 512 ------- 2 0.0 2.0 39 39
+ 0.7248 1 2 cbr 512 ------- 2 0.0 2.0 39 39
- 0.7248 1 2 cbr 512 ------- 2 0.0 2.0 39 39
+ 0.725 0 1 cbr 512 ------- 2 0.0 2.0 45 45
- 0.72528 0 1 cbr 512 ------- 2 0.0 2.0 44 44
r 0.72944 1 2 cbr 512 ------- 2 0.0 2.0 35 35
r 0.72992 0 1 cbr 512 ------- 2 0.0 2.0 40 40
+ 0.72992 1 2 cbr 512 ------- 2 0.0 2.0 40 40
- 0.72992 1 2 cbr 512 ------- 2 0.0 2.0 40 40
+ 0.73 0 1 cbr 512 ------- 2 0.0 2.0 46 46
- 0.7304 0 1 cbr 512 ------- 2 0.0 2.0 45 45
r 0.73456 1 2 cbr 512 ------- 2 0.0 2.0 36 36
+ 0.735 0 1 cbr 512 ------- 2 0.0 2.0 47 47
r 0.73504 0 1 cbr 512 ------- 2 0.0 2.0 41 41
+ 0.73504 1 2 cbr 512 ------- 2 0.0 2.0 41 41
- 0.73504 1 2 cbr 512 ------- 2 0.0 2.0 41 41
- 0.73552 0 1 cbr 512 ------- 2 0.0 2.0 46 46
r 0.73968 1 2 cbr 512 ------- 2 0.0 2.0 37 37
+ 0.74 0 1 cbr 512 ------- 2 0.0 2.0 48 48
r 0.74016 0 1 cbr 512 ------- 2 0.0 2.0 42 42
+ 0.74016 1 2 cbr 512 ------- 2 0.0 2.0 42 42
- 0.74016 1 2 cbr 512 ------- 2 0.0 2.0 42 42
- 0.74064 0 1 cbr 512 ------- 2 0.0 2.0 47 47
r 0.7448 1 2 cbr 512 ------- 2 0.0 2.0 38 38
+ 0.745 0 1 cbr 512 ------- 2 0.0 2.0 49 49
r 0.74528 0 1 cbr 512 ------- 2 0.0 2.0 43 43
+ 0.74528 1 2 cbr 512 ------- 2 0.0 2.0 43 43
- 0.74528 1 2 cbr 512 ------- 2 0.0 2.0 43 43
- 0.74576 0 1 cbr 512 ------- 2 0.0 2.0 48 48
r 0.74992 1 2 cbr 512 ------- 2 0.0 2.0 39 39
+ 0.75 0 1 cbr 512 ------- 2 0.0 2.0 50 50
r 0.7504 0 1 cbr 512 ------- 2 0.0 2.0 44 44
+ 0.7504 1 2 cbr 512 ------- 2 0.0 2.0 44 44
- 0.7504 1 2 cbr 512 ------- 2 0.0 2.0 44 44
- 0.75088 0 1 cbr 512 ------- 2 0.0 2.0 49 49
+ 0.755 0 1 cbr 512 ------- 2 0.0 2.0 51 51
r 0.75504 1 2 cbr 512 ------- 2 0.0 2.0 40 40
r 0.75552 0 1 cbr 512 ------- 2 0.0 2.0 45 45
+ 0.75552 1 2 cbr 512 ------- 2 0.0 2.0 45 45
- 0.75552 1 2 cbr 512 ------- 2 0.0 2.0 45 45
- 0.756 0 1 cbr 512 ------- 2 0.0 2.0 50 50
+ 0.76 0 1 cbr 512 ------- 2 0.0 2.0 52 52
r 0.76016 1 2 cbr 512 ------- 2 0.0 2.0 41 41
r 0.76064 0 1 cbr 512 ------- 2 0.0 2.0 46 46
+ 0.76064 1 2 cbr 512 ------- 2 0.0 2.0 46 46
- 0.76064 1 2 cbr 512 ------- 2 0.0 2.0 46 46
- 0.76112 0 1 cbr 512 ------- 2 0.0 2.0 51 51
+ 0.765 0 1 cbr 512 ------- 2 0.0 2.0 53 53
r 0.76528 1 2 cbr 512 ------- 2 0.0 2.0 42 42
r 0.76576 0 1 cbr 512 ------- 2 0.0 2.0 47 47
+ 0.76576 1 2 cbr 512 ------- 2 0.0 2.0 47 47
- 0.76576 1 2 cbr 512 ------- 2 0.0 2.0 47 47
- 0.76624 0 1 cbr 512 ------- 2 0.0 2.0 52 52
+ 0.77 0 1 cbr 512 ------- 2 0.0 2.0 54 54
r 0.7704 1 2 cbr 512 ------- 2 0.0 2.0 43 43
r 0.77088 0 1 cbr 512 ------- 2 0.0 2.0 48 48
+ 0.77088 1 2 cbr 512 ------- 2 0.0 2.0 48 48
- 0.77088 1 2 cbr 512 ------- 2 0.0 2.0 48 48
- 0.77136 0 1 cbr 512 ------- 2 0.0 2.0 53 53
+ 0.775 0 1 cbr 512 ------- 2 0.0 2.0 55 55
r 0.77552 1 2 cbr 512 ------- 2 0.0 2.0 44 44
r 0.776 0 1 cbr 512 ------- 2 0.0 2.0 49 49
+ 0.776 1 2 cbr 512 ------- 2 0.0 2.0 49 49
- 0.776 1 2 cbr 512 ------- 2 0.0 2.0 49 49
- 0.77648 0 1 cbr 512 ------- 2 0.0 2.0 54 54
+ 0.78 0 1 cbr 512 ------- 2 0.0 2.0 56 56
r 0.78064 1 2 cbr 512 ------- 2 0.0 2.0 45 45
r 0.78112 0 1 cbr 512 ------- 2 0.0 2.0 50 50
+ 0.78112 1 2 cbr 512 ------- 2 0.0 2.0 50 50
- 0.78112 1 2 cbr 512 ------- 2 0.0 2.0 50 50
- 0.7816 0 1 cbr 512 ------- 2 0.0 2.0 55 55
+ 0.785 0 1 cbr 512 ------- 2 0.0 2.0 57 57
r 0.78576 1 2 cbr 512 ------- 2 0.0 2.0 46 46
r 0.78624 0 1 cbr 512 ------- 2 0.0 2.0 51 51
+ 0.78624 1 2 cbr 512 ------- 2 0.0 2.0 51 51
- 0.78624 1 2 cbr 512 ------- 2 0.0 2.0 51 51
- 0.78672 0 1 cbr 512 ------- 2 0.0 2.0 56 56
+ 0.79 0 1 cbr 512 ------- 2 0.0 2.0 58 58
r 0.79088 1 2 cbr 512 ------- 2 0.0 2.0 47 47
r 0.79136 0 1 cbr 512 ------- 2 0.0 2.0 52 52
+ 0.79136 1 2 cbr 512 ------- 2 0.0 2.0 52 52
- 0.79136 1 2 cbr 512 ------- 2 0.0 2.0 52 52
- 0.79184 0 1 cbr 512 ------- 2 0.0 2.0 57 57
+ 0.795 0 1 cbr 512 ------- 2 0.0 2.0 59 59
r 0.796 1 2 cbr 512 ------- 2 0.0 2.0 48 48
r 0.79648 0 1 cbr 512 ------- 2 0.0 2.0 53 53
+ 0.79648 1 2 cbr 512 ------- 2 0.0 2.0 53 53
- 0.79648 1 2 cbr 512 ------- 2 0.0 2.0 53 53
- 0.79696 0 1 cbr 512 ------- 2 0.0 2.0 58 58
+ 0.8 0 1 cbr 512 ------- 2 0.0 2.0 60 60
r 0.80112 1 2 cbr 512 ------- 2 0.0 2.0 49 49
r 0.8016 0 1 cbr 512 ------- 2 0.0 2.0 54 54
+ 0.8016 1 2 cbr 512 ------- 2 0.0 2.0 54 54
- 0.8016 1 2 cbr 512 ------- 2 0.0 2.0 54 54
- 0.80208 0 1 cbr 512 ------- 2 0.0 2.0 59 59
+ 0.805 0 1 cbr 512 ------- 2 0.0 2.0 61 61
r 0.80624 1 2 cbr 512 ------- 2 0.0 2.0 50 50
r 0.80672 0 1 cbr 512 ------- 2 0.0 2.0 55 55
+ 0.80672 1 2 cbr 512 ------- 2 0.0 2.0 55 55
- 0.80672 1 2 cbr 512 ------- 2 0.0 2.0 55 55
- 0.8072 0 1 cbr 512 ------- 2 0.0 2.0 60 60
+ 0.81 0 1 cbr 512 ------- 2 0.0 2.0 62 62
r 0.81136 1 2 cbr 512 ------- 2 0.0 2.0 51 51
r 0.81184 0 1 cbr 512 ------- 2 0.0 2.0 56 56
+ 0.81184 1 2 cbr 512 ------- 2 0.0 2.0 56 56
- 0.81184 1 2 cbr 512 ------- 2 0.0 2.0 56 56
- 0.81232 0 1 cbr 512 ------- 2 0.0 2.0 61 61
+ 0.815 0 1 cbr 512 ------- 2 0.0 2.0 63 63
r 0.81648 1 2 cbr 512 ------- 2 0.0 2.0 52 52
r 0.81696 0 1 cbr 512 ------- 2 0.0 2.0 57 57
+ 0.81696 1 2 cbr 512 ------- 2 0.0 2.0 57 57
- 0.81696 1 2 cbr 512 ------- 2 0.0 2.0 57 57
- 0.81744 0 1 cbr 512 ------- 2 0.0 2.0 62 62
+ 0.82 0 1 cbr 512 ------- 2 0.0 2.0 64 64
r 0.8216 1 2 cbr 512 ------- 2 0.0 2.0 53 53
r 0.82208 0 1 cbr 512 ------- 2 0.0 2.0 58 58
+ 0.82208 1 2 cbr 512 ------- 2 0.0 2.0 58 58
- 0.82208 1 2 cbr 512 ------- 2 0.0 2.0 58 58
- 0.82256 0 1 cbr 512 ------- 2 0.0 2.0 63 63
+ 0.825 0 1 cbr 512 ------- 2 0.0 2.0 65 65
r 0.82672 1 2 cbr 512 ------- 2 0.0 2.0 54 54
r 0.8272 0 1 cbr 512 ------- 2 0.0 2.0 59 59
+ 0.8272 1 2 cbr 512 ------- 2 0.0 2.0 59 59
- 0.8272 1 2 cbr 512 ------- 2 0.0 2.0 59 59
- 0.82768 0 1 cbr 512 ------- 2 0.0 2.0 64 64
+ 0.83 0 1 cbr 512 ------- 2 0.0 2.0 66 66
r 0.83184 1 2 cbr 512 ------- 2 0.0 2.0 55 55
r 0.83232 0 1 cbr 512 ------- 2 0.0 2.0 60 60
+ 0.83232 1 2 cbr 512 ------- 2 0.0 2.0 60 60
- 0.83232 1 2 cbr 512 ------- 2 0.0 2.0 60 60
- 0.8328 0 1 cbr 512 ------- 2 0.0 2.0 65 65
+ 0.835 0 1 cbr 512 ------- 2 0.0 2.0 67 67
r 0.83696 1 2 cbr 512 ------- 2 0.0 2.0 56 56
r 0.83744 0 1 cbr 512 ------- 2 0.0 2.0 61 61
+ 0.83744 1 2 cbr 512 ------- 2 0.0 2.0 61 61
- 0.83744 1 2 cbr 512 ------- 2 0.0 2.0 61 61
- 0.83792 0 1 cbr 512 ------- 2 0.0 2.0 66 66
+ 0.84 0 1 cbr 512 ------- 2 0.0 2.0 68 68
r 0.84208 1 2 cbr 512 ------- 2 0.0 2.0 57 57
r 0.84256 0 1 cbr 512 ------- 2 0.0 2.0 62 62
+ 0.84256 1 2 cbr 512 ------- 2 0.0 2.0 62 62
- 0.84256 1 2 cbr 512 ------- 2 0.0 2.0 62 62
- 0.84304 0 1 cbr 512 ------- 2 0.0 2.0 67 67
+ 0.845 0 1 cbr 512 ------- 2 0.0 2.0 69 69
r 0.8472 1 2 cbr 512 ------- 2 0.0 2.0 58 58
r 0.84768 0 1 cbr 512 ------- 2 0.0 2.0 63 63
+ 0.84768 1 2 cbr 512 ------- 2 0.0 2.0 63 63
- 0.84768 1 2 cbr 512 ------- 2 0.0 2.0 63 63
- 0.84816 0 1 cbr 512 ------- 2 0.0 2.0 68 68
+ 0.85 0 1 cbr 512 ------- 2 0.0 2.0 70 70
r 0.85232 1 2 cbr 512 ------- 2 0.0 2.0 59 59
r 0.8528 0 1 cbr 512 ------- 2 0.0 2.0 64 64
+ 0.8528 1 2 cbr 512 ------- 2 0.0 2.0 64 64
- 0.8528 1 2 cbr 512 ------- 2 0.0 2.0 64 64
- 0.85328 0 1 cbr 512 ------- 2 0.0 2.0 69 69
+ 0.855 0 1 cbr 512 ------- 2 0.0 2.0 71 71
r 0.85744 1 2 cbr 512 ------- 2 0.0 2.0 60 60
r 0.85792 0 1 cbr 512 ------- 2 0.0 2.0 65 65
+ 0.85792 1 2 cbr 512 ------- 2 0.0 2.0 65 65
- 0.85792 1 2 cbr 512 ------- 2 0.0 2.0 65 65
- 0.8584 0 1 cbr 512 ------- 2 0.0 2.0 70 70
+ 0.86 0 1 cbr 512 ------- 2 0.0 2.0 72 72
r 0.86256 1 2 cbr 512 ------- 2 0.0 2.0 61 61
r 0.86304 0 1 cbr 512 ------- 2 0.0 2.0 66 66
+ 0.86304 1 2 cbr 512 ------- 2 0.0 2.0 66 66
- 0.86304 1 2 cbr 512 ------- 2 0.0 2.0 66 66
- 0.86352 0 1 cbr 512 ------- 2 0.0 2.0 71 71
+ 0.865 0 1 cbr 512 ------- 2 0.0 2.0 73 73
r 0.86768 1 2 cbr 512 ------- 2 0.0 2.0 62 62
r 0.86816 0 1 cbr 512 ------- 2 0.0 2.0 67 67
+ 0.86816 1 2 cbr 512 ------- 2 0.0 2.0 67 67
- 0.86816 1 2 cbr 512 ------- 2 0.0 2.0 67 67
- 0.86864 0 1 cbr 512 ------- 2 0.0 2.0 72 72
+ 0.87 0 1 cbr 512 ------- 2 0.0 2.0 74 74
r 0.8728 1 2 cbr 512 ------- 2 0.0 2.0 63 63
r 0.87328 0 1 cbr 512 ------- 2 0.0 2.0 68 68
+ 0.87328 1 2 cbr 512 ------- 2 0.0 2.0 68 68
- 0.87328 1 2 cbr 512 ------- 2 0.0 2.0 68 68
- 0.87376 0 1 cbr 512 ------- 2 0.0 2.0 73 73
+ 0.875 0 1 cbr 512 ------- 2 0.0 2.0 75 75
r 0.87792 1 2 cbr 512 ------- 2 0.0 2.0 64 64
r 0.8784 0 1 cbr 512 ------- 2 0.0 2.0 69 69
+ 0.8784 1 2 cbr 512 ------- 2 0.0 2.0 69 69
- 0.8784 1 2 cbr 512 ------- 2 0.0 2.0 69 69
- 0.87888 0 1 cbr 512 ------- 2 0.0 2.0 74 74
+ 0.88 0 1 cbr 512 ------- 2 0.0 2.0 76 76
r 0.88304 1 2 cbr 512 ------- 2 0.0 2.0 65 65
r 0.88352 0 1 cbr 512 ------- 2 0.0 2.0 70 70
+ 0.88352 1 2 cbr 512 ------- 2 0.0 2.0 70 70
- 0.88352 1 2 cbr 512 ------- 2 0.0 2.0 70 70
- 0.884 0 1 cbr 512 ------- 2 0.0 2.0 75 75
+ 0.885 0 1 cbr 512 ------- 2 0.0 2.0 77 77
r 0.88816 1 2 cbr 512 ------- 2 0.0 2.0 66 66
r 0.88864 0 1 cbr 512 ------- 2 0.0 2.0 71 71
+ 0.88864 1 2 cbr 512 ------- 2 0.0 2.0 71 71
- 0.88864 1 2 cbr 512 ------- 2 0.0 2.0 71 71
- 0.88912 0 1 cbr 512 ------- 2 0.0 2.0 76 76
+ 0.89 0 1 cbr 512 ------- 2 0.0 2.0 78 78
r 0.89328 1 2 cbr 512 ------- 2 0.0 2.0 67 67
r 0.89376 0 1 cbr 512 ------- 2 0.0 2.0 72 72
+ 0.89376 1 2 cbr 512 ------- 2 0.0 2.0 72 72
- 0.89376 1 2 cbr 512 ------- 2 0.0 2.0 72 72
- 0.89424 0 1 cbr 512 ------- 2 0.0 2.0 77 77
+ 0.895 0 1 cbr 512 ------- 2 0.0 2.0 79 79
r 0.8984 1 2 cbr 512 ------- 2 0.0 2.0 68 68
r 0.89888 0 1 cbr 512 ------- 2 0.0 2.0 73 73
+ 0.89888 1 2 cbr 512 ------- 2 0.0 2.0 73 73
- 0.89888 1 2 cbr 512 ------- 2 0.0 2.0 73 73
- 0.89936 0 1 cbr 512 ------- 2 0.0 2.0 78 78
+ 0.9 0 1 cbr 512 ------- 2 0.0 2.0 80 80
r 0.90352 1 2 cbr 512 ------- 2 0.0 2.0 69 69
r 0.904 0 1 cbr 512 ------- 2 0.0 2.0 74 74
+ 0.904 1 2 cbr 512 ------- 2 0.0 2.0 74 74
- 0.904 1 2 cbr 512 ------- 2 0.0 2.0 74 74
- 0.90448 0 1 cbr 512 ------- 2 0.0 2.0 79 79
+ 0.905 0 1 cbr 512 ------- 2 0.0 2.0 81 81
r 0.90864 1 2 cbr 512 ------- 2 0.0 2.0 70 70
r 0.90912 0 1 cbr 512 ------- 2 0.0 2.0 75 75
+ 0.90912 1 2 cbr 512 ------- 2 0.0 2.0 75 75
- 0.90912 1 2 cbr 512 ------- 2 0.0 2.0 75 75
- 0.9096 0 1 cbr 512 ------- 2 0.0 2.0 80 80
+ 0.91 0 1 cbr 512 ------- 2 0.0 2.0 82 82
r 0.91376 1 2 cbr 512 ------- 2 0.0 2.0 71 71
r 0.91424 0 1 cbr 512 ------- 2 0.0 2.0 76 76
+ 0.91424 1 2 cbr 512 ------- 2 0.0 2.0 76 76
- 0.91424 1 2 cbr 512 ------- 2 0.0 2.0 76 76
- 0.91472 0 1 cbr 512 ------- 2 0.0 2.0 81 81
+ 0.915 0 1 cbr 512 ------- 2 0.0 2.0 83 83
r 0.91888 1 2 cbr 512 ------- 2 0.0 2.0 72 72
r 0.91936 0 1 cbr 512 ------- 2 0.0 2.0 77 77
+ 0.91936 1 2 cbr 512 ------- 2 0.0 2.0 77 77
- 0.91936 1 2 cbr 512 ------- 2 0.0 2.0 77 77
- 0.91984 0 1 cbr 512 ------- 2 0.0 2.0 82 82
+ 0.92 0 1 cbr 512 ------- 2 0.0 2.0 84 84
r 0.924 1 2 cbr 512 ------- 2 0.0 2.0 73 73
r 0.92448 0 1 cbr 512 ------- 2 0.0 2.0 78 78
+ 0.92448 1 2 cbr 512 ------- 2 0.0 2.0 78 78
- 0.92448 1 2 cbr 512 ------- 2 0.0 2.0 78 78
- 0.92496 0 1 cbr 512 ------- 2 0.0 2.0 83 83
+ 0.925 0 1 cbr 512 ------- 2 0.0 2.0 85 85
r 0.92912 1 2 cbr 512 ------- 2 0.0 2.0 74 74
r 0.9296 0 1 cbr 512 ------- 2 0.0 2.0 79 79
+ 0.9296 1 2 cbr 512 ------- 2 0.0 2.0 79 79
- 0.9296 1 2 cbr 512 ------- 2 0.0 2.0 79 79
+ 0.93 0 1 cbr 512 ------- 2 0.0 2.0 86 86
- 0.93008 0 1 cbr 512 ------- 2 0.0 2.0 84 84
r 0.93424 1 2 cbr 512 ------- 2 0.0 2.0 75 75
r 0.93472 0 1 cbr 512 ------- 2 0.0 2.0 80 80
+ 0.93472 1 2 cbr 512 ------- 2 0.0 2.0 80 80
- 0.93472 1 2 cbr 512 ------- 2 0.0 2.0 80 80
+ 0.935 0 1 cbr 512 ------- 2 0.0 2.0 87 87
- 0.9352 0 1 cbr 512 ------- 2 0.0 2.0 85 85
r 0.93936 1 2 cbr 512 ------- 2 0.0 2.0 76 76
r 0.93984 0 1 cbr 512 ------- 2 0.0 2.0 81 81
+ 0.93984 1 2 cbr 512 ------- 2 0.0 2.0 81 81
- 0.93984 1 2 cbr 512 ------- 2 0.0 2.0 81 81
+ 0.94 0 1 cbr 512 ------- 2 0.0 2.0 88 88
- 0.94032 0 1 cbr 512 ------- 2 0.0 2.0 86 86
r 0.94448 1 2 cbr 512 ------- 2 0.0 2.0 77 77
r 0.94496 0 1 cbr 512 ------- 2 0.0 2.0 82 82
+ 0.94496 1 2 cbr 512 ------- 2 0.0 2.0 82 82
- 0.94496 1 2 cbr 512 ------- 2 0.0 2.0 82 82
+ 0.945 0 1 cbr 512 ------- 2 0.0 2.0 89 89
- 0.94544 0 1 cbr 512 ------- 2 0.0 2.0 87 87
r 0.9496 1 2 cbr 512 ------- 2 0.0 2.0 78 78
+ 0.95 0 1 cbr 512 ------- 2 0.0 2.0 90 90
r 0.95008 0 1 cbr 512 ------- 2 0.0 2.0 83 83
+ 0.95008 1 2 cbr 512 ------- 2 0.0 2.0 83 83
- 0.95008 1 2 cbr 512 ------- 2 0.0 2.0 83 83
- 0.95056 0 1 cbr 512 ------- 2 0.0 2.0 88 88
r 0.95472 1 2 cbr 512 ------- 2 0.0 2.0 79 79
+ 0.955 0 1 cbr 512 ------- 2 0.0 2.0 91 91
r 0.9552 0 1 cbr 512 ------- 2 0.0 2.0 84 84
+ 0.9552 1 2 cbr 512 ------- 2 0.0 2.0 84 84
- 0.9552 1 2 cbr 512 ------- 2 0.0 2.0 84 84
- 0.95568 0 1 cbr 512 ------- 2 0.0 2.0 89 89
r 0.95984 1 2 cbr 512 ------- 2 0.0 2.0 80 80
+ 0.96 0 1 cbr 512 ------- 2 0.0 2.0 92 92
r 0.96032 0 1 cbr 512 ------- 2 0.0 2.0 85 85
+ 0.96032 1 2 cbr 512 ------- 2 0.0 2.0 85 85
- 0.96032 1 2 cbr 512 ------- 2 0.0 2.0 85 85
- 0.9608 0 1 cbr 512 ------- 2 0.0 2.0 90 90
r 0.96496 1 2 cbr 512 ------- 2 0.0 2.0 81 81
+ 0.965 0 1 cbr 512 ------- 2 0.0 2.0 93 93
r 0.96544 0 1 cbr 512 ------- 2 0.0 2.0 86 86
+ 0.96544 1 2 cbr 512 ------- 2 0.0 2.0 86 86
- 0.96544 1 2 cbr 512 ------- 2 0.0 2.0 86 86
- 0.96592 0 1 cbr 512 ------- 2 0.0 2.0 91 91
+ 0.97 0 1 cbr 512 ------- 2 0.0 2.0 94 94
r 0.97008 1 2 cbr 512 ------- 2 0.0 2.0 82 82
r 0.97056 0 1 cbr 512 ------- 2 0.0 2.0 87 87
+ 0.97056 1 2 cbr 512 ------- 2 0.0 2.0 87 87
- 0.97056 1 2 cbr 512 ------- 2 0.0 2.0 87 87
- 0.97104 0 1 cbr 512 ------- 2 0.0 2.0 92 92
+ 0.975 0 1 cbr 512 ------- 2 0.0 2.0 95 95
r 0.9752 1 2 cbr 512 ------- 2 0.0 2.0 83 83
r 0.97568 0 1 cbr 512 ------- 2 0.0 2.0 88 88
+ 0.97568 1 2 cbr 512 ------- 2 0.0 2.0 88 88
- 0.97568 1 2 cbr 512 ------- 2 0.0 2.0 88 88
- 0.97616 0 1 cbr 512 ------- 2 0.0 2.0 93 93
+ 0.98 0 1 cbr 512 ------- 2 0.0 2.0 96 96
r 0.98032 1 2 cbr 512 ------- 2 0.0 2.0 84 84
r 0.9808 0 1 cbr 512 ------- 2 0.0 2.0 89 89
+ 0.9808 1 2 cbr 512 ------- 2 0.0 2.0 89 89
- 0.9808 1 2 cbr 512 ------- 2 0.0 2.0 89 89
- 0.98128 0 1 cbr 512 ------- 2 0.0 2.0 94 94
+ 0.985 0 1 cbr 512 ------- 2 0.0 2.0 97 97
r 0.98544 1 2 cbr 512 ------- 2 0.0 2.0 85 85
r 0.98592 0 1 cbr 512 ------- 2 0.0 2.0 90 90
+ 0.98592 1 2 cbr 512 ------- 2 0.0 2.0 90 90
- 0.98592 1 2 cbr 512 ------- 2 0.0 2.0 90 90
- 0.9864 0 1 cbr 512 ------- 2 0.0 2.0 95 95
+ 0.99 0 1 cbr 512 ------- 2 0.0 2.0 98 98
r 0.99056 1 2 cbr 512 ------- 2 0.0 2.0 86 86
r 0.99104 0 1 cbr 512 ------- 2 0.0 2.0 91 91
+ 0.99104 1 2 cbr 512 ------- 2 0.0 2.0 91 91
- 0.99104 1 2 cbr 512 ------- 2 0.0 2.0 91 91
- 0.99152 0 1 cbr 512 ------- 2 0.0 2.0 96 96
+ 0.995 0 1 cbr 512 ------- 2 0.0 2.0 99 99
r 0.99568 1 2 cbr 512 ------- 2 0.0 2.0 87 87
r 0.99616 0 1 cbr 512 ------- 2 0.0 2.0 92 92
+ 0.99616 1 2 cbr 512 ------- 2 0.0 2.0 92 92
- 0.99616 1 2 cbr 512 ------- 2 0.0 2.0 92 92
- 0.99664 0 1 cbr 512 ------- 2 0.0 2.0 97 97
+ 1 0 1 cbr 512 ------- 2 0.0 2.0 100 100
r 1.0008 1 2 cbr 512 ------- 2 0.0 2.0 88 88
r 1.00128 0 1 cbr 512 ------- 2 0.0 2.0 93 93
+ 1.00128 1 2 cbr 512 ------- 2 0.0 2.0 93 93
- 1.00128 1 2 cbr 512 ------- 2 0.0 2.0 93 93
- 1.00176 0 1 cbr 512 ------- 2 0.0 2.0 98 98
+ 1.005 0 1 cbr 512 ------- 2 0.0 2.0 101 101
r 1.00592 1 2 cbr 512 ------- 2 0.0 2.0 89 89
r 1.0064 0 1 cbr 512 ------- 2 0.0 2.0 94 94
+ 1.0064 1 2 cbr 512 ------- 2 0.0 2.0 94 94
- 1.0064 1 2 cbr 512 ------- 2 0.0 2.0 94 94
- 1.00688 0 1 cbr 512 ------- 2 0.0 2.0 99 99
+ 1.01 0 1 cbr 512 ------- 2 0.0 2.0 102 102
r 1.01104 1 2 cbr 512 ------- 2 0.0 2.0 90 90
r 1.01152 0 1 cbr 512 ------- 2 0.0 2.0 95 95
+ 1.01152 1 2 cbr 512 ------- 2 0.0 2.0 95 95
- 1.01152 1 2 cbr 512 ------- 2 0.0 2.0 95 95
- 1.012 0 1 cbr 512 ------- 2 0.0 2.0 100 100
+ 1.015 0 1 cbr 512 ------- 2 0.0 2.0 103 103
r 1.01616 1 2 cbr 512 ------- 2 0.0 2.0 91 91
r 1.01664 0 1 cbr 512 ------- 2 0.0 2.0 96 96
+ 1.01664 1 2 cbr 512 ------- 2 0.0 2.0 96 96
- 1.01664 1 2 cbr 512 ------- 2 0.0 2.0 96 96
- 1.01712 0 1 cbr 512 ------- 2 0.0 2.0 101 101
+ 1.02 0 1 cbr 512 ------- 2 0.0 2.0 104 104
r 1.02128 1 2 cbr 512 ------- 2 0.0 2.0 92 92
r 1.02176 0 1 cbr 512 ------- 2 0.0 2.0 97 97
+ 1.02176 1 2 cbr 512 ------- 2 0.0 2.0 97 97
- 1.02176 1 2 cbr 512 ------- 2 0.0 2.0 97 97
- 1.02224 0 1 cbr 512 ------- 2 0.0 2.0 102 102
+ 1.025 0 1 cbr 512 ------- 2 0.0 2.0 105 105
r 1.0264 1 2 cbr 512 ------- 2 0.0 2.0 93 93
r 1.02688 0 1 cbr 512 ------- 2 0.0 2.0 98 98
+ 1.02688 1 2 cbr 512 ------- 2 0.0 2.0 98 98
- 1.02688 1 2 cbr 512 ------- 2 0.0 2.0 98 98
- 1.02736 0 1 cbr 512 ------- 2 0.0 2.0 103 103
+ 1.03 0 1 cbr 512 ------- 2 0.0 2.0 106 106
r 1.03152 1 2 cbr 512 ------- 2 0.0 2.0 94 94
r 1.032 0 1 cbr 512 ------- 2 0.0 2.0 99 99
+ 1.032 1 2 cbr 512 ------- 2 0.0 2.0 99 99
- 1.032 1 2 cbr 512 ------- 2 0.0 2.0 99 99
- 1.03248 0 1 cbr 512 ------- 2 0.0 2.0 104 104
+ 1.035 0 1 cbr 512 ------- 2 0.0 2.0 107 107
r 1.03664 1 2 cbr 512 ------- 2 0.0 2.0 95 95
r 1.03712 0 1 cbr 512 ------- 2 0.0 2.0 100 100
+ 1.03712 1 2 cbr 512 ------- 2 0.0 2.0 100 100
- 1.03712 1 2 cbr 512 ------- 2 0.0 2.0 100 100
- 1.0376 0 1 cbr 512 ------- 2 0.0 2.0 105 105
+ 1.04 0 1 cbr 512 ------- 2 0.0 2.0 108 108
r 1.04176 1 2 cbr 512 ------- 2 0.0 2.0 96 96
r 1.04224 0 1 cbr 512 ------- 2 0.0 2.0 101 101
+ 1.04224 1 2 cbr 512 ------- 2 0.0 2.0 101 101
- 1.04224 1 2 cbr 512 ------- 2 0.0 2.0 101 101
- 1.04272 0 1 cbr 512 ------- 2 0.0 2.0 106 106
+ 1.045 0 1 cbr 512 ------- 2 0.0 2.0 109 109
r 1.04688 1 2 cbr 512 ------- 2 0.0 2.0 97 97
r 1.04736 0 1 cbr 512 ------- 2 0.0 2.0 102 102
+ 1.04736 1 2 cbr 512 ------- 2 0.0 2.0 102 102
- 1.04736 1 2 cbr 512 ------- 2 0.0 2.0 102 102
- 1.04784 0 1 cbr 512 ------- 2 0.0 2.0 107 107
+ 1.05 0 1 cbr 512 ------- 2 0.0 2.0 110 110
r 1.052 1 2 cbr 512 ------- 2 0.0 2.0 98 98
r 1.05248 0 1 cbr 512 ------- 2 0.0 2.0 103 103
+ 1.05248 1 2 cbr 512 ------- 2 0.0 2.0 103 103
- 1.05248 1 2 cbr 512 ------- 2 0.0 2.0 103 103
- 1.05296 0 1 cbr 512 ------- 2 0.0 2.0 108 108
+ 1.055 0 1 cbr 512 ------- 2 0.0 2.0 111 111
r 1.05712 1 2 cbr 512 ------- 2 0.0 2.0 99 99
r 1.0576 0 1 cbr 512 ------- 2 0.0 2.0 104 104
+ 1.0576 1 2 cbr 512 ------- 2 0.0 2.0 104 104
- 1.0576 1 2 cbr 512 ------- 2 0.0 2.0 104 104
- 1.05808 0 1 cbr 512 ------- 2 0.0 2.0 109 109
+ 1.06 0 1 cbr 512 ------- 2 0.0 2.0 112 112
r 1.06224 1 2 cbr 512 ------- 2 0.0 2.0 100 100
r 1.06272 0 1 cbr 512 ------- 2 0.0 2.0 105 105
+ 1.06272 1 2 cbr 512 ------- 2 0.0 2.0 105 105
- 1.06272 1 2 cbr 512 ------- 2 0.0 2.0 105 105
- 1.0632 0 1 cbr 512 ------- 2 0.0 2.0 110 110
+ 1.065 0 1 cbr 512 ------- 2 0.0 2.0 113 113
r 1.06736 1 2 cbr 512 ------- 2 0.0 2.0 101 101
r 1.06784 0 1 cbr 512 ------- 2 0.0 2.0 106 106
+ 1.06784 1 2 cbr 512 ------- 2 0.0 2.0 106 106
- 1.06784 1 2 cbr 512 ------- 2 0.0 2.0 106 106
- 1.06832 0 1 cbr 512 ------- 2 0.0 2.0 111 111
+ 1.07 0 1 cbr 512 ------- 2 0.0 2.0 114 114
r 1.07248 1 2 cbr 512 ------- 2 0.0 2.0 102 102
r 1.07296 0 1 cbr 512 ------- 2 0.0 2.0 107 107
+ 1.07296 1 2 cbr 512 ------- 2 0.0 2.0 107 107
- 1.07296 1 2 cbr 512 ------- 2 0.0 2.0 107 107
- 1.07344 0 1 cbr 512 ------- 2 0.0 2.0 112 112
+ 1.075 0 1 cbr 512 ------- 2 0.0 2.0 115 115
r 1.0776 1 2 cbr 512 ------- 2 0.0 2.0 103 103
r 1.07808 0 1 cbr 512 ------- 2 0.0 2.0 108 108
+ 1.07808 1 2 cbr 512 ------- 2 0.0 2.0 108 108
- 1.07808 1 2 cbr 512 ------- 2 0.0 2.0 108 108
- 1.07856 0 1 cbr 512 ------- 2 0.0 2.0 113 113