V -t * -v 1.0a5 -a 0
A -t * -n 1 -p 0 -o 0x7fffffff -c 30 -a 1
A -t * -h 1 -m 1073741823 -s 0
c -t * -i 2 -n red
n -t * -a 0 -s 0 -S UP -v hexagon -c red -i red
n -t * -a 1 -s 1 -S UP -v circle -c black -i black
n -t * -a 2 -s 2 -S UP -v square -c blue -i blue
l -t * -s 0 -d 1 -S UP -r 800000 -D 0.02 -c black
l -t * -s 1 -d 2 -S UP -r 800000 -D 0.02 -c black
+ -t 0.5 -s 0 -d 1 -p cbr -e 512 -c 2 -i 0 -a 2 -x {0.0 2.0 0 ------- null}
- -t 0.5 -s 0 -d 1 -p cbr -e 512 -c 2 -i 0 -a 2 -x {0.0 2.0 0 ------- null}
h -t 0.5 -s 0 -d 1 -p cbr -e 512 -c 2 -i 0 -a 2 -x {0.0 2.0 -1 ------- null}
+ -t 0.505 -s 0 -d 1 -p cbr -e 512 -c 2 -i 1 -a 2 -x {0.0 2.0 1 ------- null}
- -t 0.50512 -s 0 -d 1 -p cbr -e 512 -c 2 -i 1 -a 2 -x {0.0 2.0 1 ------- null}
h -t 0.50512 -s 0 -d 1 -p cbr -e 512 -c 2 -i 1 -a 2 -x {0.0 2.0 -1 ------- null}
+ -t 0.51 -s 0 -d 1 -p cbr -e 512 -c 2 -i 2 -a 2 -x {0.0 2.0 2 ------- null}
- -t 0.51024 -s 0 -d 1 -p cbr -e 512 -c 2 -i 2 -a 2 -x {0.0 2.0 2 ------- null}
h -t 0.51024 -s 0 -d 1 -p cbr -e 512 -c 2 -i 2 -a 2 -x {0.0 2.0 -1 ------- null}
+ -t 0.515 -s 0 -d 1 -p cbr -e 512 -c 2 -i 3 -a 2 -x {0.0 2.0 3 ------- null}
- -t 0.51536 -s 0 -d 1 -p cbr -e 512 -c 2 -i 3 -a 2 -x {0.0 2.0 3 ------- null}
h -t 0.51536 -s 0 -d 1 -p cbr -e 512 -c 2 -i 3 -a 2 -x {0.0 2.0 -1 ------- null}
+ -t 0.52 -s 0 -d 1 -p cbr -e 512 -c 2 -i 4 -a 2 -x {0.0 2.0 4 ------- null}
- -t 0.52048 -s 0 -d 1 -p cbr -e 512 -c 2 -i 4 -a 2 -x {0.0 2.0 4 ------- null}
h -t 0.52048 -s 0 -d 1 -p cbr -e 512 -c 2 -i 4 -a 2 -x {0.0 2.0 -1 ------- null}
+ -t 0.525 -s 0 -d 1 -p cbr -e 512 -c 2 -i 5 -a 2 -x {0.0 2.0 5 ------- null}
r -t 0.52512 -s 0 -d 1 -p cbr -e 512 -c 2 -i 0 -a 2 -x {0.0 2.0 0 ------- null}
+ -t 0.52512 -s 1 -d 2 -p cbr -e 512 -c 2 -i 0 -a 2 -x {0.0 2.0 0 ------- null}
- -t 0.52512 -s 1 -d 2 -p cbr -e 512 -c 2 -i 0 -a 2 -x {0.0 2.0 0 ------- null}
h -t 0.52512 -s 1 -d 2 -p cbr -e 512 -c 2 -i 0 -a 2 -x {0.0 2.0 -1 ------- null}
- -t 0.5256 -s 0 -d 1 -p cbr -e 512 -c 2 -i 5 -a 2 -x {0.0 2.0 5 ------- null}
h -t 0.5256 -s 0 -d 1 -p cbr -e 512 -c 2 -i 5 -a 2 -x {0.0 2.0 -1 ------- null}
+ -t 0.53 -s 0 -d 1 -p cbr -e 512 -c 2 -i 6 -a 2 -x {0.0 2.0 6 ------- null}
r -t 0.53024 -s 0 -d 1 -p cbr -e 512 -c 2 -i 1 -a 2 -x {0.0 2.0 1 ------- null}
+ -t 0.53024 -s 1 -d 2 -p cbr -e 512 -c 2 -i 1 -a 2 -x {0.0 2.0 1 ------- null}
- -t 0.53024 -s 1 -d 2 -p cbr -e 512 -c 2 -i 1 -a 2 -x {0.0 2.0 1 ------- null}
h -t 0.53024 -s 1 -d 2 -p cbr -e 512 -c 2 -i 1 -a 2 -x {0.0 2.0 -1 ------- null}
- -t 0.53072 -s 0 -d 1 -p cbr -e 512 -c 2 -i 6 -a 2 -x {0.0 2.0 6 ------- null}
h -t 0.53072 -s 0 -d 1 -p cbr -e 512 -c 2 -i 6 -a 2 -x {0.0 2.0 -1 ------- null}
+ -t 0.535 -s 0 -d 1 -p cbr -e 512 -c 2 -i 7 -a 2 -x {0.0 2.0 7 ------- null}
r -t 0.53536 -s 0 -d 1 -p cbr -e 512 -c 2 -i 2 -a 2 -x {0.0 2.0 2 ------- null}
+ -t 0.53536 -s 1 -d 2 -p cbr -e 512 -c 2 -i 2 -a 2 -x {0.0 2.0 2 ------- null}
- -t 0.53536 -s 1 -d 2 -p cbr -e 512 -c 2 -i 2 -a 2 -x {0.0 2.0 2 ------- null}
h -t 0.53536 -s 1 -d 2 -p cbr -e 512 -c 2 -i 2 -a 2 -x {0.0 2.0 -1 ------- null}
- -t 0.53584 -s 0 -d 1 -p cbr -e 512 -c 2 -i 7 -a 2 -x {0.0 2.0 7 ------- null}
h -t 0.53584 -s 0 -d 1 -p cbr -e 512 -c 2 -i 7 -a 2 -x {0.0 2.0 -1 ------- null}
+ -t 0.54 -s 0 -d 1 -p cbr -e 512 -c 2 -i 8 -a 2 -x {0.0 2.0 8 ------- null}
r -t 0.54048 -s 0 -d 1 -p cbr -e 512 -c 2 -i 3 -a 2 -x {0.0 2.0 3 ------- null}
+ -t 0.54048 -s 1 -d 2 -p cbr -e 512 -c 2 -i 3 -a 2 -x {0.0 2.0 3 ------- null}
- -t 0.54048 -s 1 -d 2 -p cbr -e 512 -c 2 -i 3 -a 2 -x {0.0 2.0 3 ------- null}
h -t 0.54048 -s 1 -d 2 -p cbr -e 512 -c 2 -i 3 -a 2 -x {0.0 2.0 -1 ------- null}
- -t 0.54096 -s 0 -d 1 -p cbr -e 512 -c 2 -i 8 -a 2 -x {0.0 2.0 8 ------- null}
h -t 0.54096 -s 0 -d 1 -p cbr -e 512 -c 2 -i 8 -a 2 -x {0.0 2.0 -1 ------- null}
+ -t 0.545 -s 0 -d 1 -p cbr -e 512 -c 2 -i 9 -a 2 -x {0.0 2.0 9 ------- null}
r -t 0.5456 -s 0 -d 1 -p cbr -e 512 -c 2 -i 4 -a 2 -x {0.0 2.0 4 ------- null}
+ -t 0.5456 -s 1 -d 2 -p cbr -e 512 -c 2 -i 4 -a 2 -x {0.0 2.0 4 ------- null}
- -t 0.5456 -s 1 -d 2 -p cbr -e 512 -c 2 -i 4 -a 2 -x {0.0 2.0 4 ------- null}
h -t 0.5456 -s 1 -d 2 -p cbr -e 512 -c 2 -i 4 -a 2 -x {0.0 2.0 -1 ------- null}
- -t 0.54608 -s 0 -d 1 -p cbr -e 512 -c 2 -i 9 -a 2 -x {0.0 2.0 9 ------- null}
h -t 0.54608 -s 0 -d 1 -p cbr -e 512 -c 2 -i 9 -a 2 -x {0.0 2.0 -1 ------- null}
+ -t 0.55 -s 0 -d 1 -p cbr -e 512 -c 2 -i 10 -a 2 -x {0.0 2.0 10 ------- null}
r -t 0.55024 -s 1 -d 2 -p cbr -e 512 -c 2 -i 0 -a 2 -x {0.0 2.0 0 ------- null}
r -t 0.55072 -s 0 -d 1 -p cbr -e 512 -c 2 -i 5 -a 2 -x {0.0 2.0 5 ------- null}
+ -t 0.55072 -s 1 -d 2 -p cbr -e 512 -c 2 -i 5 -a 2 -x {0.0 2.0 5 ------- null}
- -t 0.55072 -s 1 -d 2 -p cbr -e 512 -c 2 -i 5 -a 2 -x {0.0 2.0 5 ------- null}
h -t 0.55072 -s 1 -d 2 -p cbr -e 512 -c 2 -i 5 -a 2 -x {0.0 2.0 -1 ------- null}
- -t 0.5512 -s 0 -d 1 -p cbr -e 512 -c 2 -i 10 -a 2 -x {0.0 2.0 10 ------- null}
h -t 0.5512 -s 0 -d 1 -p cbr -e 512 -c 2 -i 10 -a 2 -x {0.0 2.0 -1 ------- null}
+ -t 0.555 -s 0 -d 1 -p cbr -e 512 -c 2 -i 11 -a 2 -x {0.0 2.0 11 ------- null}
r -t 0.55536 -s 1 -d 2 -p cbr -e 512 -c 2 -i 1 -a 2 -x {0.0 2.0 1 ------- null}
r -t 0.55584 -s 0 -d 1 -p cbr -e 512 -c 2 -i 6 -a 2 -x {0.0 2.0 6 ------- null}
+ -t 0.55584 -s 1 -d 2 -p cbr -e 512 -c 2 -i 6 -a 2 -x {0.0 2.0 6 ------- null}
- -t 0.55584 -s 1 -d 2 -p cbr -e 512 -c 2 -i 6 -a 2 -x {0.0 2.0 6 ------- null}
h -t 0.55584 -s 1 -d 2 -p cbr -e 512 -c 2 -i 6 -a 2 -x {0.0 2.0 -1 ------- null}
- -t 0.55632 -s 0 -d 1 -p cbr -e 512 -c 2 -i 11 -a 2 -x {0.0 2.0 11 ------- null}
h -t 0.55632 -s 0 -d 1 -p cbr -e 512 -c 2 -i 11 -a 2 -x {0.0 2.0 -1 ------- null}
+ -t 0.56 -s 0 -d 1 -p cbr -e 512 -c 2 -i 12 -a 2 -x {0.0 2.0 12 ------- null}
r -t 0.56048 -s 1 -d 2 -p cbr -e 512 -c 2 -i 2 -a 2 -x {0.0 2.0 2 ------- null}
r -t 0.56096 -s 0 -d 1 -p cbr -e 512 -c 2 -i 7 -a 2 -x {0.0 2.0 7 ------- null}
+ -t 0.56096 -s 1 -d 2 -p cbr -e 512 -c 2 -i 7 -a 2 -x {0.0 2.0 7 ------- null}
- -t 0.56096 -s 1 -d 2 -p cbr -e 512 -c 2 -i 7 -a 2 -x {0.0 2.0 7 ------- null}
h -t 0.56096 -s 1 -d 2 -p cbr -e 512 -c 2 -i 7 -a 2 -x {0.0 2.0 -1 ------- null}
- -t 0.56144 -s 0 -d 1 -p cbr -e 512 -c 2 -i 12 -a 2 -x {0.0 2.0 12 ------- null}
h -t 0.56144 -s 0 -d 1 -p cbr -e 512 -c 2 -i 12 -a 2 -x {0.0 2.0 -1 ------- null}
+ -t 0.565 -s 0 -d 1 -p cbr -e 512 -c 2 -i 13 -a 2 -x {0.0 2.0 13 ------- null}
r -t 0.5656 -s 1 -d 2 -p cbr -e 512 -c 2 -i 3 -a 2 -x {0.0 2.0 3 ------- null}
r -t 0.56608 -s 0 -d 1 -p cbr -e 512 -c 2 -i 8 -a 2 -x {0.0 2.0 8 ------- null}
+ -t 0.56608 -s 1 -d 2 -p cbr -e 512 -c 2 -i 8 -a 2 -x {0.0 2.0 8 ------- null}
- -t 0.56608 -s 1 -d 2 -p cbr -e 512 -c 2 -i 8 -a 2 -x {0.0 2.0 8 ------- null}
h -t 0.56608 -s 1 -d 2 -p cbr -e 512 -c 2 -i 8 -a 2 -x {0.0 2.0 -1 ------- null}
- -t 0.56656 -s 0 -d 1 -p cbr -e 512 -c 2 -i 13 -a 2 -x {0.0 2.0 13 ------- null}
h -t 0.56656 -s 0 -d 1 -p cbr -e 512 -c 2 -i 13 -a 2 -x {0.0 2.0 -1 ------- null}
+ -t 0.57 -s 0 -d 1 -p cbr -e 512 -c 2 -i 14 -a 2 -x {0.0 2.0 14 ------- null}
r -t 0.57072 -s 1 -d 2 -p cbr -e 512 -c 2 -i 4 -a 2 -x {0.0 2.0 4 ------- null}
r -t 0.5712 -s 0 -d 1 -p cbr -e 512 -c 2 -i 9 -a 2 -x {0.0 2.0 9 ------- null}
+ -t 0.5712 -s 1 -d 2 -p cbr -e 512 -c 2 -i 9 -a 2 -x {0.0 2.0 9 ------- null}
- -t 0.5712 -s 1 -d 2 -p cbr -e 512 -c 2 -i 9 -a 2 -x {0.0 2.0 9 ------- null}
h -t 0.5712 -s 1 -d 2 -p cbr -e 512 -c 2 -i 9 -a 2 -x {0.0 2.0 -1 ------- null}
- -t 0.57168 -s 0 -d 1 -p cbr -e 512 -c 2 -i 14 -a 2 -x {0.0 2.0 14 ------- null}
h -t 0.57168 -s 0 -d 1 -p cbr -e 512 -c 2 -i 14 -a 2 -x {0.0 2.0 -1 ------- null}
+ -t 0.575 -s 0 -d 1 -p cbr -e 512 -c 2 -i 15 -a 2 -x {0.0 2.0 15 ------- null}
r -t 0.57584 -s 1 -d 2 -p cbr -e 512 -c 2 -i 5 -a 2 -x {0.0 2.0 5 ------- null}
r -t 0.57632 -s 0 -d 1 -p cbr -e 512 -c 2 -i 10 -a 2 -x {0.0 2.0 10 ------- null}
+ -t 0.57632 -s 1 -d 2 -p cbr -e 512 -c 2 -i 10 -a 2 -x {0.0 2.0 10 ------- null}
- -t 0.57632 -s 1 -d 2 -p cbr -e 512 -c 2 -i 10 -a 2 -x {0.0 2.0 10 ------- null}
h -t 0.57632 -s 1 -d 2 -p cbr -e 512 -c 2 -i 10 -a 2 -x {0.0 2.0 -1 ------- null}
- -t 0.5768 -s 0 -d 1 -p cbr -e 512 -c 2 -i 15 -a 2 -x {0.0 2.0 15 ------- null}
h -t 0.5768 -s 0 -d 1 -p cbr -e 512 -c 2 -i 15 -a 2 -x {0.0 2.0 -1 ------- null}
+ -t 0.58 -s 0 -d 1 -p cbr -e 512 -c 2 -i 16 -a 2 -x {0.0 2.0 16 ------- null}
r -t 0.58096 -s 1 -d 2 -p cbr -e 512 -c 2 -i 6 -a 2 -x {0.0 2.0 6 ------- null}
r -t 0.58144 -s 0 -d 1 -p cbr -e 512 -c 2 -i 11 -a 2 -x {0.0 2.0 11 ------- null}
+ -t 0.58144 -s 1 -d 2 -p cbr -e 512 -c 2 -i 11 -a 2 -x {0.0 2.0 11 ------- null}
- -t 0.58144 -s 1 -d 2 -p cbr -e 512 -c 2 -i 11 -a 2 -x {0.0 2.0 11 ------- null}
h -t 0.58144 -s 1 -d 2 -p cbr -e 512 -c 2 -i 11 -a 2 -x {0.0 2.0 -1 ------- null}
- -t 0.58192 -s 0 -d 1 -p cbr -e 512 -c 2 -i 16 -a 2 -x {0.0 2.0 16 ------- null}
h -t 0.58192 -s 0 -d 1 -p cbr -e 512 -c 2 -i 16 -a 2 -x {0.0 2.0 -1 ------- null}
+ -t 0.585 -s 0 -d 1 -p cbr -e 512 -c 2 -i 17 -a 2 -x {0.0 2.0 17 ------- null}
r -t 0.58608 -s 1 -d 2 -p cbr -e 512 -c 2 -i 7 -a 2 -x {0.0 2.0 7 ------- null}
r -t 0.58656 -s 0 -d 1 -p cbr -e 512 -c 2 -i 12 -a 2 -x {0.0 2.0 12 ------- null}
+ -t 0.58656 -s 1 -d 2 -p cbr -e 512 -c 2 -i 12 -a 2 -x {0.0 2.0 12 ------- null}
- -t 0.58656 -s 1 -d 2 -p cbr -e 512 -c 2 -i 12 -a 2 -x {0.0 2.0 12 ------- null}
h -t 0.58656 -s 1 -d 2 -p cbr -e 512 -c 2 -i 12 -a 2 -x {0.0 2.0 -1 ------- null}
- -t 0.58704 -s 0 -d 1 -p cbr -e 512 -c 2 -i 17 -a 2 -x {0.0 2.0 17 ------- null}
h -t 0.58704 -s 0 -d 1 -p cbr -e 512 -c 2 -i 17 -a 2 -x {0.0 2.0 -1 ------- null}
+ -t 0.59 -s 0 -d 1 -p cbr -e 512 -c 2 -i 18 -a 2 -x {0.0 2.0 18 ------- null}
r -t 0.5912 -s 1 -d 2 -p cbr -e 512 -c 2 -i 8 -a 2 -x {0.0 2.0 8 ------- null}
r -t 0.59168 -s 0 -d 1 -p cbr -e 512 -c 2 -i 13 -a 2 -x {0.0 2.0 13 ------- null}
+ -t 0.59168 -s 1 -d 2 -p cbr -e 512 -c 2 -i 13 -a 2 -x {0.0 2.0 13 ------- null}
- -t 0.59168 -s 1 -d 2 -p cbr -e 512 -c 2 -i 13 -a 2 -x {0.0 2.0 13 ------- null}
h -t 0.59168 -s 1 -d 2 -p cbr -e 512 -c 2 -i 13 -a 2 -x {0.0 2.0 -1 ------- null}
- -t 0.59216 -s 0 -d 1 -p cbr -e 512 -c 2 -i 18 -a 2 -x {0.0 2.0 18 ------- null}
h -t 0.59216 -s 0 -d 1 -p cbr -e 512 -c 2 -i 18 -a 2 -x {0.0 2.0 -1 ------- null}
+ -t 0.595 -s 0 -d 1 -p cbr -e 512 -c 2 -i 19 -a 2 -x {0.0 2.0 19 ------- null}
r -t 0.59632 -s 1 -d 2 -p cbr -e 512 -c 2 -i 9 -a 2 -x {0.0 2.0 9 ------- null}
r -t 0.5968 -s 0 -d 1 -p cbr -e 512 -c 2 -i 14 -a 2 -x {0.0 2.0 14 ------- null}
+ -t 0.5968 -s 1 -d 2 -p cbr -e 512 -c 2 -i 14 -a 2 -x {0.0 2.0 14 ------- null}
- -t 0.5968 -s 1 -d 2 -p cbr -e 512 -c 2 -i 14 -a 2 -x {0.0 2.0 14 ------- null}
h -t 0.5968 -s 1 -d 2 -p cbr -e 512 -c 2 -i 14 -a 2 -x {0.0 2.0 -1 ------- null}
- -t 0.59728 -s 0 -d 1 -p cbr -e 512 -c 2 -i 19 -a 2 -x {0.0 2.0 19 ------- null}
h -t 0.59728 -s 0 -d 1 -p cbr -e 512 -c 2 -i 19 -a 2 -x {0.0 2.0 -1 ------- null}
+ -t 0.6 -s 0 -d 1 -p cbr -e 512 -c 2 -i 20 -a 2 -x {0.0 2.0 20 ------- null}
r -t 0.60144 -s 1 -d 2 -p cbr -e 512 -c 2 -i 10 -a 2 -x {0.0 2.0 10 ------- null}
r -t 0.60192 -s 0 -d 1 -p cbr -e 512 -c 2 -i 15 -a 2 -x {0.0 2.0 15 ------- null}
+ -t 0.60192 -s 1 -d 2 -p cbr -e 512 -c 2 -i 15 -a 2 -x {0.0 2.0 15 ------- null}
- -t 0.60192 -s 1 -d 2 -p cbr -e 512 -c 2 -i 15 -a 2 -x {0.0 2.0 15 ------- null}
h -t 0.60192 -s 1 -d 2 -p cbr -e 512 -c 2 -i 15 -a 2 -x {0.0 2.0 -1 ------- null}
- -t 0.6024 -s 0 -d 1 -p cbr -e 512 -c 2 -i 20 -a 2 -x {0.0 2.0 20 ------- null}
h -t 0.6024 -s 0 -d 1 -p cbr -e 512 -c 2 -i 20 -a 2 -x {0.0 2.0 -1 ------- null}
+ -t 0.605 -s 0 -d 1 -p cbr -e 512 -c 2 -i 21 -a 2 -x {0.0 2.0 21 ------- null}
r -t 0.60656 -s 1 -d 2 -p cbr -e 512 -c 2 -i 11 -a 2 -x {0.0 2.0 11 ------- null}
r -t 0.60704 -s 0 -d 1 -p cbr -e 512 -c 2 -i 16 -a 2 -x {0.0 2.0 16 ------- null}
+ -t 0.60704 -s 1 -d 2 -p cbr -e 512 -c 2 -i 16 -a 2 -x {0.0 2.0 16 ------- null}
- -t 0.60704 -s 1 -d 2 -p cbr -e 512 -c 2 -i 16 -a 2 -x {0.0 2.0 16 ------- null}
h -t 0.60704 -s 1 -d 2 -p cbr -e 512 -c 2 -i 16 -a 2 -x {0.0 2.0 -1 ------- null}
- -t 0.60752 -s 0 -d 1 -p cbr -e 512 -c 2 -i 21 -a 2 -x {0.0 2.0 21 ------- null}
h -t 0.60752 -s 0 -d 1 -p cbr -e 512 -c 2 -i 21 -a 2 -x {0.0 2.0 -1 ------- null}
+ -t 0.61 -s 0 -d 1 -p cbr -e 512 -c 2 -i 22 -a 2 -x {0.0 2.0 22 ------- null}
r -t 0.61168 -s 1 -d 2 -p cbr -e 512 -c 2 -i 12 -a 2 -x {0.0 2.0 12 ------- null}
r -t 0.61216 -s 0 -d 1 -p cbr -e 512 -c 2 -i 17 -a 2 -x {0.0 2.0 17 ------- null}
+ -t 0.61216 -s 1 -d 2 -p cbr -e 512 -c 2 -i 17 -a 2 -x {0.0 2.0 17 ------- null}
- -t 0.61216 -s 1 -d 2 -p cbr -e 512 -c 2 -i 17 -a 2 -x {0.0 2.0 17 ------- null}
h -t 0.61216 -s 1 -d 2 -p cbr -e 512 -c 2 -i 17 -a 2 -x {0.0 2.0 -1 ------- null}
- -t 0.61264 -s 0 -d 1 -p cbr -e 512 -c 2 -i 22 -a 2 -x {0.0 2.0 22 ------- null}
h -t 0.61264 -s 0 -d 1 -p cbr -e 512 -c 2 -i 22 -a 2 -x {0.0 2.0 -1 ------- null}
+ -t 0.615 -s 0 -d 1 -p cbr -e 512 -c 2 -i 23 -a 2 -x {0.0 2.0 23 ------- null}
r -t 0.6168 -s 1 -d 2 -p cbr -e 512 -c 2 -i 13 -a 2 -x {0.0 2.0 13 ------- null}
r -t 0.61728 -s 0 -d 1 -p cbr -e 512 -c 2 -i 18 -a 2 -x {0.0 2.0 18 ------- null}
+ -t 0.61728 -s 1 -d 2 -p cbr -e 512 -c 2 -i 18 -a 2 -x {0.0 2.0 18 ------- null}
- -t 0.61728 -s 1 -d 2 -p cbr -e 512 -c 2 -i 18 -a 2 -x {0.0 2.0 18 ------- null}
h -t 0.61728 -s 1 -d 2 -p cbr -e 512 -c 2 -i 18 -a 2 -x {0.0 2.0 -1 ------- null}
- -t 0.61776 -s 0 -d 1 -p cbr -e 512 -c 2 -i 23 -a 2 -x {0.0 2.0 23 ------- null}
h -t 0.61776 -s 0 -d 1 -p cbr -e 512 -c 2 -i 23 -a 2 -x {0.0 2.0 -1 ------- null}
+ -t 0.62 -s 0 -d 1 -p cbr -e 512 -c 2 -i 24 -a 2 -x {0.0 2.0 24 ------- null}
r -t 0.62192 -s 1 -d 2 -p cbr -e 512 -c 2 -i 14 -a 2 -x {0.0 2.0 14 ------- null}
r -t 0.6224 -s 0 -d 1 -p cbr -e 512 -c 2 -i 19 -a 2 -x {0.0 2.0 19 ------- null}
+ -t 0.6224 -s 1 -d 2 -p cbr -e 512 -c 2 -i 19 -a 2 -x {0.0 2.0 19 ------- null}
- -t 0.6224 -s 1 -d 2 -p cbr -e 512 -c 2 -i 19 -a 2 -x {0.0 2.0 19 ------- null}
h -t 0.6224 -s 1 -d 2 -p cbr -e 512 -c 2 -i 19 -a 2 -x {0.0 2.0 -1 ------- null}
- -t 0.62288 -s 0 -d 1 -p cbr -e 512 -c 2 -i 24 -a 2 -x {0.0 2.0 24 ------- null}
h -t 0.62288 -s 0 -d 1 -p cbr -e 512 -c 2 -i 24 -a 2 -x {0.0 2.0 -1 ------- null}
+ -t 0.625 -s 0 -d 1 -p cbr -e 512 -c 2 -i 25 -a 2 -x {0.0 2.0 25 ------- null}
r -t 0.62704 -s 1 -d 2 -p cbr -e 512 -c 2 -i 15 -a 2 -x {0.0 2.0 15 ------- null}
r -t 0.62752 -s 0 -d 1 -p cbr -e 512 -c 2 -i 20 -a 2 -x {0.0 2.0 20 ------- null}
+ -t 0.62752 -s 1 -d 2 -p cbr -e 512 -c 2 -i 20 -a 2 -x {0.0 2.0 20 ------- null}
- -t 0.62752 -s 1 -d 2 -p cbr -e 512 -c 2 -i 20 -a 2 -x {0.0 2.0 20 ------- null}
h -t 0.62752 -s 1 -d 2 -p cbr -e 512 -c 2 -i 20 -a 2 -x {0.0 2.0 -1 ------- null}
- -t 0.628 -s 0 -d 1 -p cbr -e 512 -c 2 -i 25 -a 2 -x {0.0 2.0 25 ------- null}
h -t 0.628 -s 0 -d 1 -p cbr -e 512 -c 2 -i 25 -a 2 -x {0.0 2.0 -1 ------- null}
+ -t 0.63 -s 0 -d 1 -p cbr -e 512 -c 2 -i 26 -a 2 -x {0.0 2.0 26 ------- null}
r -t 0.63216 -s 1 -d 2 -p cbr -e 512 -c 2 -i 16 -a 2 -x {0.0 2.0 16 ------- null}
r -t 0.63264 -s 0 -d 1 -p cbr -e 512 -c 2 -i 21 -a 2 -x {0.0 2.0 21 ------- null}
+ -t 0.63264 -s 1 -d 2 -p cbr -e 512 -c 2 -i 21 -a 2 -x {0.0 2.0 21 ------- null}
- -t 0.63264 -s 1 -d 2 -p cbr -e 512 -c 2 -i 21 -a 2 -x {0.0 2.0 21 ------- null}
h -t 0.63264 -s 1 -d 2 -p cbr -e 512 -c 2 -i 21 -a 2 -x {0.0 2.0 -1 ------- null}
- -t 0.63312 -s 0 -d 1 -p cbr -e 512 -c 2 -i 26 -a 2 -x {0.0 2.0 26 ------- null}
h -t 0.63312 -s 0 -d 1 -p cbr -e 512 -c 2 -i 26 -a 2 -x {0.0 2.0 -1 ------- null}
+ -t 0.635 -s 0 -d 1 -p cbr -e 512 -c 2 -i 27 -a 2 -x {0.0 2.0 27 ------- null}
r -t 0.63728 -s 1 -d 2 -p cbr -e 512 -c 2 -i 17 -a 2 -x {0.0 2.0 17 ------- null}
r -t 0.63776 -s 0 -d 1 -p cbr -e 512 -c 2 -i 22 -a 2 -x {0.0 2.0 22 ------- null}
+ -t 0.63776 -s 1 -d 2 -p cbr -e 512 -c 2 -i 22 -a 2 -x {0.0 2.0 22 ------- null}
- -t 0.63776 -s 1 -d 2 -p cbr -e 512 -c 2 -i 22 -a 2 -x {0.0 2.0 22 ------- null}
h -t 0.63776 -s 1 -d 2 -p cbr -e 512 -c 2 -i 22 -a 2 -x {0.0 2.0 -1 ------- null}
- -t 0.63824 -s 0 -d 1 -p cbr -e 512 -c 2 -i 27 -a 2 -x {0.0 2.0 27 ------- null}
h -t 0.63824 -s 0 -d 1 -p cbr -e 512 -c 2 -i 27 -a 2 -x {0.0 2.0 -1 ------- null}
+ -t 0.64 -s 0 -d 1 -p cbr -e 512 -c 2 -i 28 -a 2 -x {0.0 2.0 28 ------- null}
r -t 0.6424 -s 1 -d 2 -p cbr -e 512 -c 2 -i 18 -a 2 -x {0.0 2.0 18 ------- null}
r -t 0.64288 -s 0 -d 1 -p cbr -e 512 -c 2 -i 23 -a 2 -x {0.0 2.0 23 ------- null}
+ -t 0.64288 -s 1 -d 2 -p cbr -e 512 -c 2 -i 23 -a 2 -x {0.0 2.0 23 ------- null}
- -t 0.64288 -s 1 -d 2 -p cbr -e 512 -c 2 -i 23 -a 2 -x {0.0 2.0 23 ------- null}
h -t 0.64288 -s 1 -d 2 -p cbr -e 512 -c 2 -i 23 -a 2 -x {0.0 2.0 -1 ------- null}
- -t 0.64336 -s 0 -d 1 -p cbr -e 512 -c 2 -i 28 -a 2 -x {0.0 2.0 28 ------- null}
h -t 0.64336 -s 0 -d 1 -p cbr -e 512 -c 2 -i 28 -a 2 -x {0.0 2.0 -1 ------- null}
+ -t 0.645 -s 0 -d 1 -p cbr -e 512 -c 2 -i 29 -a 2 -x {0.0 2.0 29 ------- null}
r -t 0.64752 -s 1 -d 2 -p cbr -e 512 -c 2 -i 19 -a 2 -x {0.0 2.0 19 ------- null}
r -t 0.648 -s 0 -d 1 -p cbr -e 512 -c 2 -i 24 -a 2 -x {0.0 2.0 24 ------- null}
+ -t 0.648 -s 1 -d 2 -p cbr -e 512 -c 2 -i 24 -a 2 -x {0.0 2.0 24 ------- null}
- -t 0.648 -s 1 -d 2 -p cbr -e 512 -c 2 -i 24 -a 2 -x {0.0 2.0 24 ------- null}
h -t 0.648 -s 1 -d 2 -p cbr -e 512 -c 2 -i 24 -a 2 -x {0.0 2.0 -1 ------- null}
- -t 0.64848 -s 0 -d 1 -p cbr -e 512 -c 2 -i 29 -a 2 -x {0.0 2.0 29 ------- null}
h -t 0.64848 -s 0 -d 1 -p cbr -e 512 -c 2 -i 29 -a 2 -x {0.0 2.0 -1 ------- null}
+ -t 0.65 -s 0 -d 1 -p cbr -e 512 -c 2 -i 30 -a 2 -x {0.0 2.0 30 ------- null}
r -t 0.65264 -s 1 -d 2 -p cbr -e 512 -c 2 -i 20 -a 2 -x {0.0 2.0 20 ------- null}
r -t 0.65312 -s 0 -d 1 -p cbr -e 512 -c 2 -i 25 -a 2 -x {0.0 2.0 25 ------- null}
+ -t 0.65312 -s 1 -d 2 -p cbr -e 512 -c 2 -i 25 -a 2 -x {0.0 2.0 25 ------- null}
- -t 0.65312 -s 1 -d 2 -p cbr -e 512 -c 2 -i 25 -a 2 -x {0.0 2.0 25 ------- null}
h -t 0.65312 -s 1 -d 2 -p cbr -e 512 -c 2 -i 25 -a 2 -x {0.0 2.0 -1 ------- null}
- -t 0.6536 -s 0 -d 1 -p cbr -e 512 -c 2 -i 30 -a 2 -x {0.0 2.0 30 ------- null}
h -t 0.6536 -s 0 -d 1 -p cbr -e 512 -c 2 -i 30 -a 2 -x {0.0 2.0 -1 ------- null}
+ -t 0.655 -s 0 -d 1 -p cbr -e 512 -c 2 -i 31 -a 2 -x {0.0 2.0 31 ------- null}
r -t 0.65776 -s 1 -d 2 -p cbr -e 512 -c 2 -i 21 -a 2 -x {0.0 2.0 21 ------- null}
r -t 0.65824 -s 0 -d 1 -p cbr -e 512 -c 2 -i 26 -a 2 -x {0.0 2.0 26 ------- null}
+ -t 0.65824 -s 1 -d 2 -p cbr -e 512 -c 2 -i 26 -a 2 -x {0.0 2.0 26 ------- null}
- -t 0.65824 -s 1 -d 2 -p cbr -e 512 -c 2 -i 26 -a 2 -x {0.0 2.0 26 ------- null}
h -t 0.65824 -s 1 -d 2 -p cbr -e 512 -c 2 -i 26 -a 2 -x {0.0 2.0 -1 ------- null}
- -t 0.65872 -s 0 -d 1 -p cbr -e 512 -c 2 -i 31 -a 2 -x {0.0 2.0 31 ------- null}
h -t 0.65872 -s 0 -d 1 -p cbr -e 512 -c 2 -i 31 -a 2 -x {0.0 2.0 -1 ------- null}
+ -t 0.66 -s 0 -d 1 -p cbr -e 512 -c 2 -i 32 -a 2 -x {0.0 2.0 32 ------- null}
r -t 0.66288 -s 1 -d 2 -p cbr -e 512 -c 2 -i 22 -a 2 -x {0.0 2.0 22 ------- null}
r -t 0.66336 -s 0 -d 1 -p cbr -e 512 -c 2 -i 27 -a 2 -x {0.0 2.0 27 ------- null}
+ -t 0.66336 -s 1 -d 2 -p cbr -e 512 -c 2 -i 27 -a 2 -x {0.0 2.0 27 ------- null}
- -t 0.66336 -s 1 -d 2 -p cbr -e 512 -c 2 -i 27 -a 2 -x {0.0 2.0 27 ------- null}
h -t 0.66336 -s 1 -d 2 -p cbr -e 512 -c 2 -i 27 -a 2 -x {0.0 2.0 -1 ------- null}
- -t 0.66384 -s 0 -d 1 -p cbr -e 512 -c 2 -i 32 -a 2 -x {0.0 2.0 32 ------- null}
h -t 0.66384 -s 0 -d 1 -p cbr -e 512 -c 2 -i 32 -a 2 -x {0.0 2.0 -1 ------- null}
+ -t 0.665 -s 0 -d 1 -p cbr -e 512 -c 2 -i 33 -a 2 -x {0.0 2.0 33 ------- null}
r -t 0.668 -s 1 -d 2 -p cbr -e 512 -c 2 -i 23 -a 2 -x {0.0 2.0 23 ------- null}
r -t 0.66848 -s 0 -d 1 -p cbr -e 512 -c 2 -i 28 -a 2 -x {0.0 2.0 28 ------- null}
+ -t 0.66848 -s 1 -d 2 -p cbr -e 512 -c 2 -i 28 -a 2 -x {0.0 2.0 28 ------- null}
- -t 0.66848 -s 1 -d 2 -p cbr -e 512 -c 2 -i 28 -a 2 -x {0.0 2.0 28 ------- null}
h -t 0.66848 -s 1 -d 2 -p cbr -e 512 -c 2 -i 28 -a 2 -x {0.0 2.0 -1 ------- null}
- -t 0.66896 -s 0 -d 1 -p cbr -e 512 -c 2 -i 33 -a 2 -x {0.0 2.0 33 ------- null}
h -t 0.66896 -s 0 -d 1 -p cbr -e 512 -c 2 -i 33 -a 2 -x {0.0 2.0 -1 ------- null}
+ -t 0.67 -s 0 -d 1 -p cbr -e 512 -c 2 -i 34 -a 2 -x {0.0 2.0 34 ------- null}
r -t 0.67312 -s 1 -d 2 -p cbr -e 512 -c 2 -i 24 -a 2 -x {0.0 2.0 24 ------- null}
r -t 0.6736 -s 0 -d 1 -p cbr -e 512 -c 2 -i 29 -a 2 -x {0.0 2.0 29 ------- null}
+ -t 0.6736 -s 1 -d 2 -p cbr -e 512 -c 2 -i 29 -a 2 -x {0.0 2.0 29 ------- null}
- -t 0.6736 -s 1 -d 2 -p cbr -e 512 -c 2 -i 29 -a 2 -x {0.0 2.0 29 ------- null}
h -t 0.6736 -s 1 -d 2 -p cbr -e 512 -c 2 -i 29 -a 2 -x {0.0 2.0 -1 ------- null}
- -t 0.67408 -s 0 -d 1 -p cbr -e 512 -c 2 -i 34 -a 2 -x {0.0 2.0 34 ------- null}
h -t 0.67408 -s 0 -d 1 -p cbr -e 512 -c 2 -i 34 -a 2 -x {0.0 2.0 -1 ------- null}
+ -t 0.675 -s 0 -d 1 -p cbr -e 512 -c 2 -i 35 -a 2 -x {0.0 2.0 35 ------- null}
r -t 0.67824 -s 1 -d 2 -p cbr -e 512 -c 2 -i 25 -a 2 -x {0.0 2.0 25 ------- null}
r -t 0.67872 -s 0 -d 1 -p cbr -e 512 -c 2 -i 30 -a 2 -x {0.0 2.0 30 ------- null}
+ -t 0.67872 -s 1 -d 2 -p cbr -e 512 -c 2 -i 30 -a 2 -x {0.0 2.0 30 ------- null}
- -t 0.67872 -s 1 -d 2 -p cbr -e 512 -c 2 -i 30 -a 2 -x {0.0 2.0 30 ------- null}
h -t 0.67872 -s 1 -d 2 -p cbr -e 512 -c 2 -i 30 -a 2 -x {0.0 2.0 -1 ------- null}
- -t 0.6792 -s 0 -d 1 -p cbr -e 512 -c 2 -i 35 -a 2 -x {0.0 2.0 35 ------- null}
h -t 0.6792 -s 0 -d 1 -p cbr -e 512 -c 2 -i 35 -a 2 -x {0.0 2.0 -1 ------- null}
+ -t 0.68 -s 0 -d 1 -p cbr -e 512 -c 2 -i 36 -a 2 -x {0.0 2.0 36 ------- null}
r -t 0.68336 -s 1 -d 2 -p cbr -e 512 -c 2 -i 26 -a 2 -x {0.0 2.0 26 ------- null}
r -t 0.68384 -s 0 -d 1 -p cbr -e 512 -c 2 -i 31 -a 2 -x {0.0 2.0 31 ------- null}
+ -t 0.68384 -s 1 -d 2 -p cbr -e 512 -c 2 -i 31 -a 2 -x {0.0 2.0 31 ------- null}
- -t 0.68384 -s 1 -d 2 -p cbr -e 512 -c 2 -i 31 -a 2 -x {0.0 2.0 31 ------- null}
h -t 0.68384 -s 1 -d 2 -p cbr -e 512 -c 2 -i 31 -a 2 -x {0.0 2.0 -1 ------- null}
- -t 0.68432 -s 0 -d 1 -p cbr -e 512 -c 2 -i 36 -a 2 -x {0.0 2.0 36 ------- null}
h -t 0.68432 -s 0 -d 1 -p cbr -e 512 -c 2 -i 36 -a 2 -x {0.0 2.0 -1 ------- null}
+ -t 0.685 -s 0 -d 1 -p cbr -e 512 -c 2 -i 37 -a 2 -x {0.0 2.0 37 ------- null}
r -t 0.68848 -s 1 -d 2 -p cbr -e 512 -c 2 -i 27 -a 2 -x {0.0 2.0 27 ------- null}
r -t 0.68896 -s 0 -d 1 -p cbr -e 512 -c 2 -i 32 -a 2 -x {0.0 2.0 32 ------- null}
+ -t 0.68896 -s 1 -d 2 -p cbr -e 512 -c 2 -i 32 -a 2 -x {0.0 2.0 32 ------- null}
- -t 0.68896 -s 1 -d 2 -p cbr -e 512 -c 2 -i 32 -a 2 -x {0.0 2.0 32 ------- null}
h -t 0.68896 -s 1 -d 2 -p cbr -e 512 -c 2 -i 32 -a 2 -x {0.0 2.0 -1 ------- null}
- -t 0.68944 -s 0 -d 1 -p cbr -e 512 -c 2 -i 37 -a 2 -x {0.0 2.0 37 ------- null}
h -t 0.68944 -s 0 -d 1 -p cbr -e 512 -c 2 -i 37 -a 2 -x {0.0 2.0 -1 ------- null}
+ -t 0.69 -s 0 -d 1 -p cbr -e 512 -c 2 -i 38 -a 2 -x {0.0 2.0 38 ------- null}
r -t 0.6936 -s 1 -d 2 -p cbr -e 512 -c 2 -i 28 -a 2 -x {0.0 2.0 28 ------- null}
r -t 0.69408 -s 0 -d 1 -p cbr -e 512 -c 2 -i 33 -a 2 -x {0.0 2.0 33 ------- null}
+ -t 0.69408 -s 1 -d 2 -p cbr -e 512 -c 2 -i 33 -a 2 -x {0.0 2.0 33 ------- null}
- -t 0.69408 -s 1 -d 2 -p cbr -e 512 -c 2 -i 33 -a 2 -x {0.0 2.0 33 ------- null}
h -t 0.69408 -s 1 -d 2 -p cbr -e 512 -c 2 -i 33 -a 2 -x {0.0 2.0 -1 ------- null}
- -t 0.694560000000001 -s 0 -d 1 -p cbr -e 512 -c 2 -i 38 -a 2 -x {0.0 2.0 38 ------- null}
h -t 0.694560000000001 -s 0 -d 1 -p cbr -e 512 -c 2 -i 38 -a 2 -x {0.0 2.0 -1 ------- null}
+ -t 0.695 -s 0 -d 1 -p cbr -e 512 -c 2 -i 39 -a 2 -x {0.0 2.0 39 ------- null}
r -t 0.69872 -s 1 -d 2 -p cbr -e 512 -c 2 -i 29 -a 2 -x {0.0 2.0 29 ------- null}
r -t 0.6992 -s 0 -d 1 -p cbr -e 512 -c 2 -i 34 -a 2 -x {0.0 2.0 34 ------- null}
+ -t 0.6992 -s 1 -d 2 -p cbr -e 512 -c 2 -i 34 -a 2 -x {0.0 2.0 34 ------- null}
- -t 0.6992 -s 1 -d 2 -p cbr -e 512 -c 2 -i 34 -a 2 -x {0.0 2.0 34 ------- null}
h -t 0.6992 -s 1 -d 2 -p cbr -e 512 -c 2 -i 34 -a 2 -x {0.0 2.0 -1 ------- null}
- -t 0.699680000000001 -s 0 -d 1 -p cbr -e 512 -c 2 -i 39 -a 2 -x {0.0 2.0 39 ------- null}
h -t 0.699680000000001 -s 0 -d 1 -p cbr -e 512 -c 2 -i 39 -a 2 -x {0.0 2.0 -1 ------- null}
+ -t 0.7 -s 0 -d 1 -p cbr -e 512 -c 2 -i 40 -a 2 -x {0.0 2.0 40 ------- null}
r -t 0.70384 -s 1 -d 2 -p cbr -e 512 -c 2 -i 30 -a 2 -x {0.0 2.0 30 ------- null}
r -t 0.704320000000001 -s 0 -d 1 -p cbr -e 512 -c 2 -i 35 -a 2 -x {0.0 2.0 35 ------- null}
+ -t 0.704320000000001 -s 1 -d 2 -p cbr -e 512 -c 2 -i 35 -a 2 -x {0.0 2.0 35 ------- null}
- -t 0.704320000000001 -s 1 -d 2 -p cbr -e 512 -c 2 -i 35 -a 2 -x {0.0 2.0 35 ------- null}
h -t 0.704320000000001 -s 1 -d 2 -p cbr -e 512 -c 2 -i 35 -a 2 -x {0.0 2.0 -1 ------- null}
- -t 0.704800000000001 -s 0 -d 1 -p cbr -e 512 -c 2 -i 40 -a 2 -x {0.0 2.0 40 ------- null}
h -t 0.704800000000001 -s 0 -d 1 -p cbr -e 512 -c 2 -i 40 -a 2 -x {0.0 2.0 -1 ------- null}
+ -t 0.705 -s 0 -d 1 -p cbr -e 512 -c 2 -i 41 -a 2 -x {0.0 2.0 41 ------- null}
r -t 0.70896 -s 1 -d 2 -p cbr -e 512 -c 2 -i 31 -a 2 -x {0.0 2.0 31 ------- null}
r -t 0.709440000000001 -s 0 -d 1 -p cbr -e 512 -c 2 -i 36 -a 2 -x {0.0 2.0 36 ------- null}
+ -t 0.709440000000001 -s 1 -d 2 -p cbr -e 512 -c 2 -i 36 -a 2 -x {0.0 2.0 36 ------- null}
- -t 0.709440000000001 -s 1 -d 2 -p cbr -e 512 -c 2 -i 36 -a 2 -x {0.0 2.0 36 ------- null}
h -t 0.709440000000001 -s 1 -d 2 -p cbr -e 512 -c 2 -i 36 -a 2 -x {0.0 2.0 -1 ------- null}
- -t 0.709920000000001 -s 0 -d 1 -p cbr -e 512 -c 2 -i 41 -a 2 -x {0.0 2.0 41 ------- null}
h -t 0.709920000000001 -s 0 -d 1 -p cbr -e 512 -c 2 -i 41 -a 2 -x {0.0 2.0 -1 ------- null}
+ -t 0.71 -s 0 -d 1 -p cbr -e 512 -c 2 -i 42 -a 2 -x {0.0 2.0 42 ------- null}
r -t 0.71408 -s 1 -d 2 -p cbr -e 512 -c 2 -i 32 -a 2 -x {0.0 2.0 32 ------- null}
r -t 0.714560000000001 -s 0 -d 1 -p cbr -e 512 -c 2 -i 37 -a 2 -x {0.0 2.0 37 ------- null}
+ -t 0.714560000000001 -s 1 -d 2 -p cbr -e 512 -c 2 -i 37 -a 2 -x {0.0 2.0 37 ------- null}
- -t 0.714560000000001 -s 1 -d 2 -p cbr -e 512 -c 2 -i 37 -a 2 -x {0.0 2.0 37 ------- null}
h -t 0.714560000000001 -s 1 -d 2 -p cbr -e 512 -c 2 -i 37 -a 2 -x {0.0 2.0 -1 ------- null}
+ -t 0.715 -s 0 -d 1 -p cbr -e 512 -c 2 -i 43 -a 2 -x {0.0 2.0 43 ------- null}
- -t 0.715040000000001 -s 0 -d 1 -p cbr -e 512 -c 2 -i 42 -a 2 -x {0.0 2.0 42 ------- null}
h -t 0.715040000000001 -s 0 -d 1 -p cbr -e 512 -c 2 -i 42 -a 2 -x {0.0 2.0 -1 ------- null}
r -t 0.719200000000001 -s 1 -d 2 -p cbr -e 512 -c 2 -i 33 -a 2 -x {0.0 2.0 33 ------- null}
r -t 0.719680000000001 -s 0 -d 1 -p cbr -e 512 -c 2 -i 38 -a 2 -x {0.0 2.0 38 ------- null}
+ -t 0.719680000000001 -s 1 -d 2 -p cbr -e 512 -c 2 -i 38 -a 2 -x {0.0 2.0 38 ------- null}
- -t 0.719680000000001 -s 1 -d 2 -p cbr -e 512 -c 2 -i 38 -a 2 -x {0.0 2.0 38 ------- null}
h -t 0.719680000000001 -s 1 -d 2 -p cbr -e 512 -c 2 -i 38 -a 2 -x {0.0 2.0 -1 ------- null}
+ -t 0.72 -s 0 -d 1 -p cbr -e 512 -c 2 -i 44 -a 2 -x {0.0 2.0 44 ------- null}
- -t 0.720160000000001 -s 0 -d 1 -p cbr -e 512 -c 2 -i 43 -a 2 -x {0.0 2.0 43 ------- null}
h -t 0.720160000000001 -s 0 -d 1 -p cbr -e 512 -c 2 -i 43 -a 2 -x {0.0 2.0 -1 ------- null}
r -t 0.724320000000001 -s 1 -d 2 -p cbr -e 512 -c 2 -i 34 -a 2 -x {0.0 2.0 34 ------- null}
r -t 0.724800000000001 -s 0 -d 1 -p cbr -e 512 -c 2 -i 39 -a 2 -x {0.0 2.0 39 ------- null}
+ -t 0.724800000000001 -s 1 -d 2 -p cbr -e 512 -c 2 -i 39 -a 2 -x {0.0 2.0 39 ------- null}
- -t 0.724800000000001 -s 1 -d 2 -p cbr -e 512 -c 2 -i 39 -a 2 -x {0.0 2.0 39 ------- null}
h -t 0.724800000000001 -s 1 -d 2 -p cbr -e 512 -c 2 -i 39 -a 2 -x {0.0 2.0 -1 ------- null}
+ -t 0.725 -s 0 -d 1 -p cbr -e 512 -c 2 -i 45 -a 2 -x {0.0 2.0 45 ------- null}
- -t 0.725280000000001 -s 0 -d 1 -p cbr -e 512 -c 2 -i 44 -a 2 -x {0.0 2.0 44 ------- null}
h -t 0.725280000000001 -s 0 -d 1 -p cbr -e 512 -c 2 -i 44 -a 2 -x {0.0 2.0 -1 ------- null}
r -t 0.729440000000001 -s 1 -d 2 -p cbr -e 512 -c 2 -i 35 -a 2 -x {0.0 2.0 35 ------- null}
r -t 0.729920000000001 -s 0 -d 1 -p cbr -e 512 -c 2 -i 40 -a 2 -x {0.0 2.0 40 ------- null}
+ -t 0.729920000000001 -s 1 -d 2 -p cbr -e 512 -c 2 -i 40 -a 2 -x {0.0 2.0 40 ------- null}
- -t 0.729920000000001 -s 1 -d 2 -p cbr -e 512 -c 2 -i 40 -a 2 -x {0.0 2.0 40 ------- null}
h -t 0.729920000000001 -s 1 -d 2 -p cbr -e 512 -c 2 -i 40 -a 2 -x {0.0 2.0 -1 ------- null}
+ -t 0.73 -s 0 -d 1 -p cbr -e 512 -c 2 -i 46 -a 2 -x {0.0 2.0 46 ------- null}
- -t 0.730400000000001 -s 0 -d 1 -p cbr -e 512 -c 2 -i 45 -a 2 -x {0.0 2.0 45 ------- null}
h -t 0.730400000000001 -s 0 -d 1 -p cbr -e 512 -c 2 -i 45 -a 2 -x {0.0 2.0 -1 ------- null}
r -t 0.734560000000001 -s 1 -d 2 -p cbr -e 512 -c 2 -i 36 -a 2 -x {0.0 2.0 36 ------- null}
+ -t 0.735 -s 0 -d 1 -p cbr -e 512 -c 2 -i 47 -a 2 -x {0.0 2.0 47 ------- null}
r -t 0.735040000000001 -s 0 -d 1 -p cbr -e 512 -c 2 -i 41 -a 2 -x {0.0 2.0 41 ------- null}
+ -t 0.735040000000001 -s 1 -d 2 -p cbr -e 512 -c 2 -i 41 -a 2 -x {0.0 2.0 41 ------- null}
- -t 0.735040000000001 -s 1 -d 2 -p cbr -e 512 -c 2 -i 41 -a 2 -x {0.0 2.0 41 ------- null}
h -t 0.735040000000001 -s 1 -d 2 -p cbr -e 512 -c 2 -i 41 -a 2 -x {0.0 2.0 -1 ------- null}
- -t 0.735520000000001 -s 0 -d 1 -p cbr -e 512 -c 2 -i 46 -a 2 -x {0.0 2.0 46 ------- null}
h -t 0.735520000000001 -s 0 -d 1 -p cbr -e 512 -c 2 -i 46 -a 2 -x {0.0 2.0 -1 ------- null}
r -t 0.739680000000001 -s 1 -d 2 -p cbr -e 512 -c 2 -i 37 -a 2 -x {0.0 2.0 37 ------- null}
+ -t 0.74 -s 0 -d 1 -p cbr -e 512 -c 2 -i 48 -a 2 -x {0.0 2.0 48 ------- null}
r -t 0.740160000000001 -s 0 -d 1 -p cbr -e 512 -c 2 -i 42 -a 2 -x {0.0 2.0 42 ------- null}
+ -t 0.740160000000001 -s 1 -d 2 -p cbr -e 512 -c 2 -i 42 -a 2 -x {0.0 2.0 42 ------- null}
- -t 0.740160000000001 -s 1 -d 2 -p cbr -e 512 -c 2 -i 42 -a 2 -x {0.0 2.0 42 ------- null}
h -t 0.740160000000001 -s 1 -d 2 -p cbr -e 512 -c 2 -i 42 -a 2 -x {0.0 2.0 -1 ------- null}
- -t 0.740640000000001 -s 0 -d 1 -p cbr -e 512 -c 2 -i 47 -a 2 -x {0.0 2.0 47 ------- null}
h -t 0.740640000000001 -s 0 -d 1 -p cbr -e 512 -c 2 -i 47 -a 2 -x {0.0 2.0 -1 ------- null}
r -t 0.744800000000001 -s 1 -d 2 -p cbr -e 512 -c 2 -i 38 -a 2 -x {0.0 2.0 38 ------- null}
+ -t 0.745 -s 0 -d 1 -p cbr -e 512 -c 2 -i 49 -a 2 -x {0.0 2.0 49 ------- null}
r -t 0.745280000000001 -s 0 -d 1 -p cbr -e 512 -c 2 -i 43 -a 2 -x {0.0 2.0 43 ------- null}